 DBCSR| CPU Multiplication driver                                           BLAS
 DBCSR| Multrec recursion limit                                              512
 DBCSR| Multiplication stack size                                           1000
 DBCSR| Maximum elements for images                                    UNLIMITED
 DBCSR| Multiplicative factor virtual images                                   1
 DBCSR| Use multiplication densification                                       T
 DBCSR| Multiplication size stacks                                             3
 DBCSR| Number of 3D layers                                               SINGLE
 DBCSR| Use MPI memory allocation                                              T
 DBCSR| Use RMA algorithm                                                      F
 DBCSR| Use Communication thread                                               T
 DBCSR| Communication thread load                                             87


  **** **** ******  **  PROGRAM STARTED AT               2019-04-18 09:14:36.517
 ***** ** ***  *** **   PROGRAM STARTED ON                                  gpu1
 **    ****   ******    PROGRAM STARTED BY                                sghpc3
 ***** **    ** ** **   PROGRAM PROCESS ID                                343450
  **** **  *******  **  PROGRAM STARTED IN   /public/sugon_home/sghpc3/test/cp2k

 CP2K| version string:                    CP2K version 7.0 (Development Version)
 CP2K| source code revision number:                                  git:821fbd8
 CP2K| cp2kflags: omp fftw3 parallel mpi3 scalapack acc pw_cuda mkl             
 CP2K| is freely available from                            https://www.cp2k.org/
 CP2K| Program compiled at            2019年 04月 17日 星期三 22:49:47 CST
 CP2K| Program compiled on                                                  gpu1
 CP2K| Program compiled for                       Linux-x86-64-cuda-gfortran-mkl
 CP2K| Data directory path       /public/sugon_home/sghpc3/source/cp2k-cuda/data
 CP2K| Input file name                                      input_bulk_B88_3.inp

 GLOBAL| Force Environment number                                              1
 GLOBAL| Basis set file name                                         ./BASIS_OPT
 GLOBAL| Potential file name                                         ./POTENTIAL
 GLOBAL| MM Potential file name                                     MM_POTENTIAL
 GLOBAL| Coordinate file name                                      __STD_INPUT__
 GLOBAL| Method name                                                        CP2K
 GLOBAL| Project name                                                 LiH_bulk_3
 GLOBAL| Preferred FFT library                                             FFTW3
 GLOBAL| Preferred diagonalization lib.                                       SL
 GLOBAL| Run type                                                         ENERGY
 GLOBAL| All-to-all communication in single precision                          F
 GLOBAL| FFTs using library dependent lengths                                  F
 GLOBAL| Global print level                                               MEDIUM
 GLOBAL| MPI I/O enabled                                                       T
 GLOBAL| Total number of message passing processes                             1
 GLOBAL| Number of threads for this process                                    1
 GLOBAL| This output is from process                                           0
 GLOBAL| CPU model name :  Intel(R) Xeon(R) Gold 6132 CPU @ 2.60GHz

 MEMORY| system memory details [Kb]
 MEMORY|                        rank 0           min           max       average
 MEMORY| MemTotal             98431184      98431184      98431184      98431184
 MEMORY| MemFree              59698640      59698640      59698640      59698640
 MEMORY| Buffers                  1036          1036          1036          1036
 MEMORY| Cached               20393000      20393000      20393000      20393000
 MEMORY| Slab                  3050868       3050868       3050868       3050868
 MEMORY| SReclaimable          1893656       1893656       1893656       1893656
 MEMORY| MemLikelyFree        81986332      81986332      81986332      81986332


 *** Fundamental physical constants (SI units) ***

 *** Literature: B. J. Mohr and B. N. Taylor,
 ***             CODATA recommended values of the fundamental physical
 ***             constants: 2006, Web Version 5.1
 ***             http://physics.nist.gov/constants

 Speed of light in vacuum [m/s]                             2.99792458000000E+08
 Magnetic constant or permeability of vacuum [N/A**2]       1.25663706143592E-06
 Electric constant or permittivity of vacuum [F/m]          8.85418781762039E-12
 Planck constant (h) [J*s]                                  6.62606896000000E-34
 Planck constant (h-bar) [J*s]                              1.05457162825177E-34
 Elementary charge [C]                                      1.60217648700000E-19
 Electron mass [kg]                                         9.10938215000000E-31
 Electron g factor [ ]                                     -2.00231930436220E+00
 Proton mass [kg]                                           1.67262163700000E-27
 Fine-structure constant                                    7.29735253760000E-03
 Rydberg constant [1/m]                                     1.09737315685270E+07
 Avogadro constant [1/mol]                                  6.02214179000000E+23
 Boltzmann constant [J/K]                                   1.38065040000000E-23
 Atomic mass unit [kg]                                      1.66053878200000E-27
 Bohr radius [m]                                            5.29177208590000E-11

 *** Conversion factors ***

 [u] -> [a.u.]                                              1.82288848426455E+03
 [Angstrom] -> [Bohr] = [a.u.]                              1.88972613288564E+00
 [a.u.] = [Bohr] -> [Angstrom]                              5.29177208590000E-01
 [a.u.] -> [s]                                              2.41888432650478E-17
 [a.u.] -> [fs]                                             2.41888432650478E-02
 [a.u.] -> [J]                                              4.35974393937059E-18
 [a.u.] -> [N]                                              8.23872205491840E-08
 [a.u.] -> [K]                                              3.15774647902944E+05
 [a.u.] -> [kJ/mol]                                         2.62549961709828E+03
 [a.u.] -> [kcal/mol]                                       6.27509468713739E+02
 [a.u.] -> [Pa]                                             2.94210107994716E+13
 [a.u.] -> [bar]                                            2.94210107994716E+08
 [a.u.] -> [atm]                                            2.90362800883016E+08
 [a.u.] -> [eV]                                             2.72113838565563E+01
 [a.u.] -> [Hz]                                             6.57968392072181E+15
 [a.u.] -> [1/cm] (wave numbers)                            2.19474631370540E+05
 [a.u./Bohr**2] -> [1/cm]                                   5.14048714338585E+03
 

 CELL_TOP| Volume [angstrom^3]:                                           68.117
 CELL_TOP| Vector a [angstrom     4.084     0.000     0.000    |a| =       4.084
 CELL_TOP| Vector b [angstrom     0.000     4.084     0.000    |b| =       4.084
 CELL_TOP| Vector c [angstrom     0.000     0.000     4.084    |c| =       4.084
 CELL_TOP| Angle (b,c), alpha [degree]:                                   90.000
 CELL_TOP| Angle (a,c), beta  [degree]:                                   90.000
 CELL_TOP| Angle (a,b), gamma [degree]:                                   90.000
 CELL_TOP| Numerically orthorhombic:                                         YES

 GENERATE|  Preliminary Number of Bonds generated:                             0
 GENERATE|  Achieved consistency in connectivity generation.

 CELL| Volume [angstrom^3]:                                               68.117
 CELL| Vector a [angstrom]:       4.084     0.000     0.000    |a| =       4.084
 CELL| Vector b [angstrom]:       0.000     4.084     0.000    |b| =       4.084
 CELL| Vector c [angstrom]:       0.000     0.000     4.084    |c| =       4.084
 CELL| Angle (b,c), alpha [degree]:                                       90.000
 CELL| Angle (a,c), beta  [degree]:                                       90.000
 CELL| Angle (a,b), gamma [degree]:                                       90.000
 CELL| Numerically orthorhombic:                                             YES

 CELL_REF| Volume [angstrom^3]:                                           68.117
 CELL_REF| Vector a [angstrom     4.084     0.000     0.000    |a| =       4.084
 CELL_REF| Vector b [angstrom     0.000     4.084     0.000    |b| =       4.084
 CELL_REF| Vector c [angstrom     0.000     0.000     4.084    |c| =       4.084
 CELL_REF| Angle (b,c), alpha [degree]:                                   90.000
 CELL_REF| Angle (a,c), beta  [degree]:                                   90.000
 CELL_REF| Angle (a,b), gamma [degree]:                                   90.000
 CELL_REF| Numerically orthorhombic:                                         YES

 *******************************************************************************
 *******************************************************************************
 **                                                                           **
 **     #####                         ##              ##                      **
 **    ##   ##            ##          ##              ##                      **
 **   ##     ##                       ##            ######                    **
 **   ##     ##  ##   ##  ##   #####  ##  ##   ####   ##    #####    #####    **
 **   ##     ##  ##   ##  ##  ##      ## ##   ##      ##   ##   ##  ##   ##   **
 **   ##  ## ##  ##   ##  ##  ##      ####     ###    ##   ######   ######    **
 **    ##  ###   ##   ##  ##  ##      ## ##      ##   ##   ##       ##        **
 **     #######   #####   ##   #####  ##  ##  ####    ##    #####   ##        **
 **           ##                                                    ##        **
 **                                                                           **
 **                                                ... make the atoms dance   **
 **                                                                           **
 **            Copyright (C) by CP2K developers group (2000 - 2018)           **
 **                                                                           **
 *******************************************************************************

 DFT| Spin restricted Kohn-Sham (RKS) calculation                            RKS
 DFT| Multiplicity                                                             1
 DFT| Number of spin states                                                    1
 DFT| Charge                                                                   0
 DFT| Self-interaction correction (SIC)                                       NO
 DFT| Cutoffs: density                                              1.000000E-10
 DFT|          gradient                                             1.000000E-10
 DFT|          tau                                                  1.000000E-10
 DFT|          cutoff_smoothing_range                               0.000000E+00
 DFT| XC density smoothing                                                  NONE
 DFT| XC derivatives                                                          PW
 FUNCTIONAL| ROUTINE=NEW
 FUNCTIONAL| BECKE88:
 FUNCTIONAL| A. Becke, Phys. Rev. A 38, 3098 (1988) {LDA version}               

 QS| Method:                                                                GAPW
 QS| Density plane wave grid type                        NON-SPHERICAL FULLSPACE
 QS| Number of grid levels:                                                    4
 QS| Density cutoff [a.u.]:                                                150.0
 QS| Multi grid cutoff [a.u.]: 1) grid level                               150.0
 QS|                           2) grid level                                50.0
 QS|                           3) grid level                                16.7
 QS|                           4) grid level                                 5.6
 QS| Grid level progression factor:                                          3.0
 QS| Relative density cutoff [a.u.]:                                        25.0
 QS| Consistent realspace mapping and integration 
 QS| Interaction thresholds: eps_pgf_orb:                                1.0E-16
 QS|                         eps_filter_matrix:                          0.0E+00
 QS|                         eps_core_charge:                            1.0E-14
 QS|                         eps_rho_gspace:                             1.0E-12
 QS|                         eps_rho_rspace:                             1.0E-12
 QS|                         eps_gvg_rspace:                             1.0E-06
 QS|                         eps_ppl:                                    1.0E-02
 QS|                         eps_ppnl:                                   1.0E-08
 QS| GAPW|                   eps_fit:                                    1.0E-04
 QS| GAPW|                   eps_iso:                                    1.0E-12
 QS| GAPW|                   eps_svd:                                    1.0E-08
 QS| GAPW|                   eps_cpc:                                    1.0E-12
 QS| GAPW|   atom-r-grid: quadrature:                 GC_LOG                        
 QS| GAPW|      atom-s-grid:  max l :                                          6
 QS| GAPW|      max_l_rho0 :                                                   2


 ATOMIC KIND INFORMATION

  1. Atomic kind: Li                                    Number of atoms:       4

     Orbital Basis Set                                                      OPT2

       Number of orbital shell sets:                                          19
       Number of orbital shells:                                              19
       Number of primitive Cartesian functions:                               22
       Number of Cartesian basis functions:                                   48
       Number of spherical basis functions:                                   43
       Norm type:                                                              2

       Normalised Cartesian orbitals:

                        Set   Shell   Orbital            Exponent    Coefficient

                          1       1    1s             1336.034059     157.497346

                          2       1    1s              444.299817      68.971106

                          3       1    1s              147.797018      30.210600

                          4       1    1s               49.209451      13.241784

                          5       1    1s               16.428957       5.815909

                          6       1    1s                5.529399       2.569914

                          7       1    1s                1.905282       1.155792

                          8       1    1s                0.700259       0.545574

                          9       1    1s                0.299587       0.288604

                         10       1    1s                0.166363       0.185653

                         11       1    1px               1.570911       2.506857
                         11       1    1py               1.570911       2.506857
                         11       1    1pz               1.570911       2.506857

                         12       1    1px               0.748759       0.992813
                         12       1    1py               0.748759       0.992813
                         12       1    1pz               0.748759       0.992813

                         13       1    1px               0.386141       0.433883
                         13       1    1py               0.386141       0.433883
                         13       1    1pz               0.386141       0.433883

                         14       1    1px               0.226205       0.222366
                         14       1    1py               0.226205       0.222366
                         14       1    1pz               0.226205       0.222366

                         15       1    1dx2              0.779208       1.063661
                         15       1    1dxy              0.779208       1.842314
                         15       1    1dxz              0.779208       1.842314
                         15       1    1dy2              0.779208       1.063661
                         15       1    1dyz              0.779208       1.842314
                         15       1    1dz2              0.779208       1.063661

                         16       1    1dx2              0.407899       0.342671
                         16       1    1dxy              0.407899       0.593523
                         16       1    1dxz              0.407899       0.593523
                         16       1    1dy2              0.407899       0.342671
                         16       1    1dyz              0.407899       0.593523
                         16       1    1dz2              0.407899       0.342671

                         17       1    1fx3              0.737063       0.741037
                         17       1    1fx2y             0.737063       1.657009
                         17       1    1fx2z             0.737063       1.657009
                         17       1    1fxy2             0.737063       1.657009
                         17       1    1fxyz             0.737063       2.870024
                         17       1    1fxz2             0.737063       1.657009
                         17       1    1fy3              0.737063       0.741037
                         17       1    1fy2z             0.737063       1.657009
                         17       1    1fyz2             0.737063       1.657009
                         17       1    1fz3              0.737063       0.741037

                         18       1    1s            70681.000000      77.181651
                                                     13594.000000     137.129824
                                                      3100.400000     260.757508

                         19       1    1px              28.500000      10.037838
                                                         6.640000      14.250477
                         19       1    1py              28.500000      10.037838
                                                         6.640000      14.250477
                         19       1    1pz              28.500000      10.037838
                                                         6.640000      14.250477

     The atoms of this atomic kind are PAW atoms (GAPW):
       Hard Gaussian function radius:                                      1.512
       Rho0 radius:                                                        1.512
       Maximum GTO radius used for PAW projector construction:            24.566

     GAPW Soft Basis Set                                               OPT2_soft

       Number of orbital shell sets:                                          19
       Number of orbital shells:                                              19
       Number of primitive Cartesian functions:                               11
       Number of Cartesian basis functions:                                   48
       Number of spherical basis functions:                                   43
       Norm type:                                                              2

       Normalised Cartesian orbitals:

                        Set   Shell   Orbital            Exponent    Coefficient

                          1       1    1s         

                          2       1    1s         

                          3       1    1s         

                          4       1    1s         

                          5       1    1s         

                          6       1    1s         

                          7       1    1s                1.905282       1.155792

                          8       1    1s                0.700259       0.545574

                          9       1    1s                0.299587       0.288604

                         10       1    1s                0.166363       0.185653

                         11       1    1px               1.570911       2.506857
                         11       1    1py               1.570911       2.506857
                         11       1    1pz               1.570911       2.506857

                         12       1    1px               0.748759       0.992813
                         12       1    1py               0.748759       0.992813
                         12       1    1pz               0.748759       0.992813

                         13       1    1px               0.386141       0.433883
                         13       1    1py               0.386141       0.433883
                         13       1    1pz               0.386141       0.433883

                         14       1    1px               0.226205       0.222366
                         14       1    1py               0.226205       0.222366
                         14       1    1pz               0.226205       0.222366

                         15       1    1dx2              0.779208       1.063661
                         15       1    1dxy              0.779208       1.842314
                         15       1    1dxz              0.779208       1.842314
                         15       1    1dy2              0.779208       1.063661
                         15       1    1dyz              0.779208       1.842314
                         15       1    1dz2              0.779208       1.063661

                         16       1    1dx2              0.407899       0.342671
                         16       1    1dxy              0.407899       0.593523
                         16       1    1dxz              0.407899       0.593523
                         16       1    1dy2              0.407899       0.342671
                         16       1    1dyz              0.407899       0.593523
                         16       1    1dz2              0.407899       0.342671

                         17       1    1fx3              0.737063       0.741037
                         17       1    1fx2y             0.737063       1.657009
                         17       1    1fx2z             0.737063       1.657009
                         17       1    1fxy2             0.737063       1.657009
                         17       1    1fxyz             0.737063       2.870024
                         17       1    1fxz2             0.737063       1.657009
                         17       1    1fy3              0.737063       0.741037
                         17       1    1fy2z             0.737063       1.657009
                         17       1    1fyz2             0.737063       1.657009
                         17       1    1fz3              0.737063       0.741037

                         18       1    1s         

                         19       1    1px        
                         19       1    1py        
                         19       1    1pz        

     AE Potential information for                                            ALL

       Description:                                       All-electron potential
                                          Krack, Parrinello, PCCP 2, 2105 (2000)

       Gaussian exponent of the core charge distribution:               3.125000
       Electronic configuration (s p d ...):                           3   0   0

  2. Atomic kind: H                                     Number of atoms:       4

     Orbital Basis Set                                                      OPT2

       Number of orbital shell sets:                                          12
       Number of orbital shells:                                              12
       Number of primitive Cartesian functions:                               14
       Number of Cartesian basis functions:                                   37
       Number of spherical basis functions:                                   32
       Norm type:                                                              2

       Normalised Cartesian orbitals:

                        Set   Shell   Orbital            Exponent    Coefficient

                          1       1    1s               27.463675       8.550255

                          2       1    1s                6.855926       3.019671

                          3       1    1s                1.767997       1.092751

                          4       1    1s                0.511818       0.431268

                          5       1    1s                0.201675       0.214486

                          6       1    1px               2.124086       3.655151
                          6       1    1py               2.124086       3.655151
                          6       1    1pz               2.124086       3.655151

                          7       1    1px               1.073681       1.557881
                          7       1    1py               1.073681       1.557881
                          7       1    1pz               1.073681       1.557881

                          8       1    1px               0.568387       0.703469
                          8       1    1py               0.568387       0.703469
                          8       1    1pz               0.568387       0.703469

                          9       1    1dx2              0.928338       1.445092
                          9       1    1dxy              0.928338       2.502973
                          9       1    1dxz              0.928338       2.502973
                          9       1    1dy2              0.928338       1.445092
                          9       1    1dyz              0.928338       2.502973
                          9       1    1dz2              0.928338       1.445092

                         10       1    1dx2              0.495830       0.482216
                         10       1    1dxy              0.495830       0.835223
                         10       1    1dxz              0.495830       0.835223
                         10       1    1dy2              0.495830       0.482216
                         10       1    1dyz              0.495830       0.835223
                         10       1    1dz2              0.495830       0.482216

                         11       1    1fx3              1.207348       2.249456
                         11       1    1fx2y             1.207348       5.029937
                         11       1    1fx2z             1.207348       5.029937
                         11       1    1fxy2             1.207348       5.029937
                         11       1    1fxyz             1.207348       8.712106
                         11       1    1fxz2             1.207348       5.029937
                         11       1    1fy3              1.207348       2.249456
                         11       1    1fy2z             1.207348       5.029937
                         11       1    1fyz2             1.207348       5.029937
                         11       1    1fz3              1.207348       2.249456

                         12       1    1s             3079.700000       6.291525
                                                       461.520000      11.778577
                                                       105.060000      20.410428

     The atoms of this atomic kind are PAW atoms (GAPW):
       Hard Gaussian function radius:                                      1.200
       Rho0 radius:                                                        1.200
       Maximum GTO radius used for PAW projector construction:            24.566

     GAPW Soft Basis Set                                               OPT2_soft

       Number of orbital shell sets:                                          12
       Number of orbital shells:                                              12
       Number of primitive Cartesian functions:                                9
       Number of Cartesian basis functions:                                   37
       Number of spherical basis functions:                                   32
       Norm type:                                                              2

       Normalised Cartesian orbitals:

                        Set   Shell   Orbital            Exponent    Coefficient

                          1       1    1s         

                          2       1    1s         

                          3       1    1s                1.767997       1.092751

                          4       1    1s                0.511818       0.431268

                          5       1    1s                0.201675       0.214486

                          6       1    1px               2.124086       3.655151
                          6       1    1py               2.124086       3.655151
                          6       1    1pz               2.124086       3.655151

                          7       1    1px               1.073681       1.557881
                          7       1    1py               1.073681       1.557881
                          7       1    1pz               1.073681       1.557881

                          8       1    1px               0.568387       0.703469
                          8       1    1py               0.568387       0.703469
                          8       1    1pz               0.568387       0.703469

                          9       1    1dx2              0.928338       1.445092
                          9       1    1dxy              0.928338       2.502973
                          9       1    1dxz              0.928338       2.502973
                          9       1    1dy2              0.928338       1.445092
                          9       1    1dyz              0.928338       2.502973
                          9       1    1dz2              0.928338       1.445092

                         10       1    1dx2              0.495830       0.482216
                         10       1    1dxy              0.495830       0.835223
                         10       1    1dxz              0.495830       0.835223
                         10       1    1dy2              0.495830       0.482216
                         10       1    1dyz              0.495830       0.835223
                         10       1    1dz2              0.495830       0.482216

                         11       1    1fx3              1.207348       2.249456
                         11       1    1fx2y             1.207348       5.029937
                         11       1    1fx2z             1.207348       5.029937
                         11       1    1fxy2             1.207348       5.029937
                         11       1    1fxyz             1.207348       8.712106
                         11       1    1fxz2             1.207348       5.029937
                         11       1    1fy3              1.207348       2.249456
                         11       1    1fy2z             1.207348       5.029937
                         11       1    1fyz2             1.207348       5.029937
                         11       1    1fz3              1.207348       2.249456

                         12       1    1s         

     AE Potential information for                                            ALL

       Description:                                       All-electron potential
                                          Krack, Parrinello, PCCP 2, 2105 (2000)

       Gaussian exponent of the core charge distribution:              12.500000
       Electronic configuration (s p d ...):                           1   0   0


 MOLECULE KIND INFORMATION


 All atoms are their own molecule, skipping detailed information


 TOTAL NUMBERS AND MAXIMUM NUMBERS

  Total number of            - Atomic kinds:                                   2
                             - Atoms:                                          8
                             - Shell sets:                                   124
                             - Shells:                                       124
                             - Primitive Cartesian functions:                144
                             - Cartesian basis functions:                    340
                             - Spherical basis functions:                    300

  Maximum angular momentum of the orbital basis functions:                     3


 MODULE QUICKSTEP:  ATOMIC COORDINATES IN angstrom

  Atom  Kind  Element       X           Y           Z          Z(eff)       Mass

       1     1 Li   3    0.000000    0.000000    0.000000      3.00       6.9410
       2     1 Li   3    2.042000    2.042000    0.000000      3.00       6.9410
       3     1 Li   3    2.042000    0.000000    2.042000      3.00       6.9410
       4     1 Li   3    0.000000    2.042000    2.042000      3.00       6.9410
       5     2 H    1    0.000000    2.042000    0.000000      1.00       1.0079
       6     2 H    1    2.042000    0.000000    0.000000      1.00       1.0079
       7     2 H    1    0.000000    0.000000    2.042000      1.00       1.0079
       8     2 H    1    2.042000    2.042000    2.042000      1.00       1.0079




 SCF PARAMETERS         Density guess:                                    ATOMIC
                        --------------------------------------------------------
                        max_scf:                                              10
                        max_scf_history:                                       0
                        max_diis:                                              4
                        --------------------------------------------------------
                        eps_scf:                                        1.00E-07
                        eps_scf_history:                                0.00E+00
                        eps_diis:                                       1.00E-01
                        eps_eigval:                                     1.00E-05
                        --------------------------------------------------------
                        level_shift [a.u.]:                                 0.00
                        --------------------------------------------------------
                        Outer loop SCF in use 
                        No variables optimised in outer loop
                        eps_scf                                         1.00E-07
                        max_scf                                               10
                        No outer loop optimization
                        step_size                                       5.00E-01

 PW_GRID| Information for grid number                                          1
 PW_GRID| Cutoff [a.u.]                                                    150.0
 PW_GRID| spherical cutoff:                                                   NO
 PW_GRID|   Bounds   1            -22      22                Points:          45
 PW_GRID|   Bounds   2            -22      22                Points:          45
 PW_GRID|   Bounds   3            -22      22                Points:          45
 PW_GRID| Volume element (a.u.^3)  0.5044E-02     Volume (a.u.^3)       459.6781
 PW_GRID| Grid span                                                    FULLSPACE

 PW_GRID| Information for grid number                                          2
 PW_GRID| Cutoff [a.u.]                                                     50.0
 PW_GRID| spherical cutoff:                                                   NO
 PW_GRID|   Bounds   1            -12      12                Points:          25
 PW_GRID|   Bounds   2            -12      12                Points:          25
 PW_GRID|   Bounds   3            -12      12                Points:          25
 PW_GRID| Volume element (a.u.^3)  0.2942E-01     Volume (a.u.^3)       459.6781
 PW_GRID| Grid span                                                    FULLSPACE

 PW_GRID| Information for grid number                                          3
 PW_GRID| Cutoff [a.u.]                                                     16.7
 PW_GRID| spherical cutoff:                                                   NO
 PW_GRID|   Bounds   1             -7       7                Points:          15
 PW_GRID|   Bounds   2             -7       7                Points:          15
 PW_GRID|   Bounds   3             -7       7                Points:          15
 PW_GRID| Volume element (a.u.^3)  0.1362         Volume (a.u.^3)       459.6781
 PW_GRID| Grid span                                                    FULLSPACE

 PW_GRID| Information for grid number                                          4
 PW_GRID| Cutoff [a.u.]                                                      5.6
 PW_GRID| spherical cutoff:                                                   NO
 PW_GRID|   Bounds   1             -4       4                Points:           9
 PW_GRID|   Bounds   2             -4       4                Points:           9
 PW_GRID|   Bounds   3             -4       4                Points:           9
 PW_GRID| Volume element (a.u.^3)  0.6306         Volume (a.u.^3)       459.6781
 PW_GRID| Grid span                                                    FULLSPACE

 POISSON| Solver                                                        PERIODIC
 POISSON| Periodicity                                                        XYZ

 RS_GRID| Information for grid number                                          1
 RS_GRID|   Bounds   1            -22      22                Points:          45
 RS_GRID|   Bounds   2            -22      22                Points:          45
 RS_GRID|   Bounds   3            -22      22                Points:          45

 RS_GRID| Information for grid number                                          2
 RS_GRID|   Bounds   1            -12      12                Points:          25
 RS_GRID|   Bounds   2            -12      12                Points:          25
 RS_GRID|   Bounds   3            -12      12                Points:          25

 RS_GRID| Information for grid number                                          3
 RS_GRID|   Bounds   1             -7       7                Points:          15
 RS_GRID|   Bounds   2             -7       7                Points:          15
 RS_GRID|   Bounds   3             -7       7                Points:          15

 RS_GRID| Information for grid number                                          4
 RS_GRID|   Bounds   1             -4       4                Points:           9
 RS_GRID|   Bounds   2             -4       4                Points:           9
 RS_GRID|   Bounds   3             -4       4                Points:           9

 Number of electrons:                                                         16
 Number of occupied orbitals:                                                  8
 Number of molecular orbitals:                                                 8

 Number of orbital functions:                                                300
 Number of independent orbital functions:                                    300

 Extrapolation method: initial_guess

 Atomic guess: The first density matrix is obtained in terms of atomic orbitals
               and electronic configurations assigned to each atomic kind

 Guess for atomic kind: Li

 Electronic structure
    Total number of core electrons                                          0.00
    Total number of valence electrons                                       3.00
    Total number of electrons                                               3.00
    Multiplicity                                                   not specified
    S      2.00  1.00


 *******************************************************************************
                  Iteration          Convergence                     Energy [au]
 *******************************************************************************
                          1        0.366375E-01                  -7.265968330823
                          2        0.734994E-02                  -7.266277877733
                          3        0.252958E-03                  -7.266291245037
                          4        0.138485E-04                  -7.266291275674
                          5        0.182508E-06                  -7.266291275739

 Energy components [Hartree]           Total Energy ::           -7.266291275739
                                        Band Energy ::           -3.545728607405
                                     Kinetic Energy ::            7.483729362652
                                   Potential Energy ::          -14.750020638390
                                      Virial (-V/T) ::            1.970945223113
                                        Core Energy ::           -9.811586285906
                                          XC Energy ::           -1.712415239295
                                     Coulomb Energy ::            4.257710249463

 Orbital energies  State     L     Occupation   Energy[a.u.]          Energy[eV]

                       1     0          2.000      -1.773616          -48.262548
                       2     0          1.000       0.001504            0.040914


 Total Electron Density at R=0:                                        13.567689

 Guess for atomic kind: H

 Electronic structure
    Total number of core electrons                                          0.00
    Total number of valence electrons                                       1.00
    Total number of electrons                                               1.00
    Multiplicity                                                   not specified
    S      1.00


 *******************************************************************************
                  Iteration          Convergence                     Energy [au]
 *******************************************************************************
                          1        0.266540E-02                  -0.434975734540
                          2        0.109094E-03                  -0.434979741978
                          3        0.115125E-04                  -0.434979773841
                          4        0.163056E-07                  -0.434979774030

 Energy components [Hartree]           Total Energy ::           -0.434979774030
                                        Band Energy ::           -0.202665576855
                                     Kinetic Energy ::            0.481600404909
                                   Potential Energy ::           -0.916580178939
                                      Virial (-V/T) ::            1.903196445844
                                        Core Energy ::           -0.492590153463
                                          XC Energy ::           -0.250850993229
                                     Coulomb Energy ::            0.308461372661

 Orbital energies  State     L     Occupation   Energy[a.u.]          Energy[eV]

                       1     0          1.000      -0.202666           -5.514811


 Total Electron Density at R=0:                                         0.289404
 Re-scaling the density matrix to get the right number of electrons
                  # Electrons              Trace(P)               Scaling factor
                           16                16.694                        0.958
FFT 3D (45-45-45)
3D FFT lmem=91125
Scale =1.000000e+00
Data(in)	Data(out)	Data(scal)
9.089825e-01	6.867611e+02	6.867611e+02
0.000000e+00	0.000000e+00	0.000000e+00
8.210781e-01	6.643898e+01	6.643898e+01
0.000000e+00	-2.273423e-10	-2.273423e-10
6.059488e-01	5.640578e+02	5.640578e+02
0.000000e+00	1.944889e-10	1.944889e-10
3.667552e-01	3.043160e+01	3.043160e+01
0.000000e+00	1.501685e-10	1.501685e-10
1.831325e-01	3.107483e+02	3.107483e+02
0.000000e+00	-1.126714e-10	-1.126714e-10
...
0.000000e+00	1.372351e-11	1.372351e-11
1.089867e-02	1.952321e-12	1.952321e-12
0.000000e+00	-3.791156e-12	-3.791156e-12
2.230258e-02	-1.477148e-11	-1.477148e-11
0.000000e+00	5.442839e-12	5.442839e-12
3.813974e-02	2.276472e-11	2.276472e-11
0.000000e+00	-8.160160e-12	-8.160160e-12
5.462784e-02	-1.115025e-11	-1.115025e-11
0.000000e+00	-1.358083e-12	-1.358083e-12
6.542678e-02	4.853886e-13	4.853886e-13
FFT 3D (25-25-25)
3D FFT lmem=15625
Scale =1.000000e+00
Data(in)	Data(out)	Data(scal)
7.579492e-02	1.256215e+02	1.256215e+02
0.000000e+00	0.000000e+00	0.000000e+00
6.801664e-02	-9.155180e+00	-9.155180e+00
0.000000e+00	-5.669901e-11	-5.669901e-11
5.007394e-02	5.735182e+01	5.735182e+01
0.000000e+00	6.592446e-11	6.592446e-11
3.194000e-02	3.424175e+00	3.424175e+00
0.000000e+00	-7.651993e-11	-7.651993e-11
1.899192e-02	8.873807e+00	8.873807e+00
0.000000e+00	9.379589e-11	9.379589e-11
...
0.000000e+00	-4.551799e-12	-4.551799e-12
9.941525e-03	-3.470426e-12	-3.470426e-12
0.000000e+00	-1.125652e-11	-1.125652e-11
2.137124e-02	-1.302306e-11	-1.302306e-11
0.000000e+00	9.482077e-12	9.482077e-12
4.276658e-02	5.307312e-12	5.307312e-12
0.000000e+00	-1.482006e-11	-1.482006e-11
7.208467e-02	7.258445e-13	7.258445e-13
0.000000e+00	-4.091771e-12	-4.091771e-12
9.521695e-02	2.214818e-11	2.214818e-11
FFT 3D (15-15-15)
3D FFT lmem=3375
Scale =1.000000e+00
Data(in)	Data(out)	Data(scal)
1.893773e-02	3.993187e+01	3.993187e+01
0.000000e+00	0.000000e+00	0.000000e+00
1.204628e-02	2.589429e-01	2.589429e-01
0.000000e+00	-1.032035e-09	-1.032035e-09
2.700666e-03	2.703671e+00	2.703671e+00
0.000000e+00	6.914234e-10	6.914234e-10
4.525340e-03	-4.197942e-02	-4.197942e-02
0.000000e+00	-1.295845e-10	-1.295845e-10
1.359011e-02	1.094408e+00	1.094408e+00
0.000000e+00	-2.077645e-10	-2.077645e-10
...
0.000000e+00	-1.342485e-11	-1.342485e-11
5.313756e-03	1.332755e-12	1.332755e-12
0.000000e+00	1.179615e-10	1.179615e-10
1.405821e-02	-2.186149e-11	-2.186149e-11
0.000000e+00	4.733633e-11	4.733633e-11
2.530277e-02	-1.015147e-11	-1.015147e-11
0.000000e+00	-8.114373e-11	-8.114373e-11
3.605867e-02	-2.843833e-11	-2.843833e-11
0.000000e+00	-1.472486e-11	-1.472486e-11
4.292755e-02	-6.461191e-11	-6.461191e-11
FFT 3D (9-9-9)
3D FFT lmem=729
Scale =1.000000e+00
Data(in)	Data(out)	Data(scal)
0.000000e+00	0.000000e+00	0.000000e+00
0.000000e+00	0.000000e+00	0.000000e+00
0.000000e+00	0.000000e+00	0.000000e+00
0.000000e+00	0.000000e+00	0.000000e+00
0.000000e+00	0.000000e+00	0.000000e+00
0.000000e+00	0.000000e+00	0.000000e+00
0.000000e+00	0.000000e+00	0.000000e+00
0.000000e+00	0.000000e+00	0.000000e+00
0.000000e+00	0.000000e+00	0.000000e+00
0.000000e+00	0.000000e+00	0.000000e+00
...
0.000000e+00	0.000000e+00	0.000000e+00
0.000000e+00	0.000000e+00	0.000000e+00
0.000000e+00	0.000000e+00	0.000000e+00
0.000000e+00	0.000000e+00	0.000000e+00
0.000000e+00	0.000000e+00	0.000000e+00
0.000000e+00	0.000000e+00	0.000000e+00
0.000000e+00	0.000000e+00	0.000000e+00
0.000000e+00	0.000000e+00	0.000000e+00
0.000000e+00	0.000000e+00	0.000000e+00
0.000000e+00	0.000000e+00	0.000000e+00
3D FFT lmem=91125
Scale =1.000000e+00
Data(in)	Data(out)	Data(scal)
2.740792e-02	1.003715e+00	1.003715e+00
0.000000e+00	-9.387445e-29	-9.387445e-29
2.198895e-04	9.124024e-01	9.124024e-01
-3.119119e-13	4.271846e-17	4.271846e-17
1.066154e-02	6.878541e-01	6.878541e-01
2.112197e-13	4.104884e-17	4.104884e-17
5.406633e-04	4.353382e-01	4.353382e-01
-4.164473e-14	1.487956e-17	1.487956e-17
4.302325e-03	2.371356e-01	2.371356e-01
-5.679335e-14	5.168620e-17	5.168620e-17
...
1.506009e-16	8.357571e-17	8.357571e-17
2.142465e-17	9.330264e-02	9.330264e-02
-4.160390e-17	3.608413e-18	3.608413e-18
-1.621013e-16	1.246262e-01	1.246262e-01
5.972937e-17	-4.733999e-18	-4.733999e-18
2.498186e-16	1.605386e-01	1.605386e-01
-8.954908e-17	1.121951e-17	1.121951e-17
-1.223621e-16	1.937161e-01	1.937161e-01
-1.490351e-17	-9.343957e-18	-9.343957e-18
5.326624e-18	2.140754e-01	2.140754e-01


 SCF WAVEFUNCTION OPTIMIZATION

  ----------------------------------- OT ---------------------------------------
  Minimizer      : CG                  : conjugate gradient
  Preconditioner : FULL_ALL            : diagonalization, state selective
  Precond_solver : DEFAULT
  Line search    : 2PNT                : 2 energies, one gradient
  stepsize       :    0.15000000                  energy_gap     :    0.08000000
  eps_taylor     :   0.10000E-15                  max_taylor     :             4
  ----------------------------------- OT ---------------------------------------

  Step     Update method      Time    Convergence         Total energy    Change
  ------------------------------------------------------------------------------
3D FFT lmem=91125
Scale =1.000000e+00
Data(in)	Data(out)	Data(scal)
-1.201272e+01	-2.497547e+03	-2.497547e+03
0.000000e+00	0.000000e+00	0.000000e+00
-8.977815e+00	3.942614e+00	3.942614e+00
0.000000e+00	-9.592327e-14	-9.592327e-14
-3.747645e+00	-2.335808e+03	-2.335808e+03
0.000000e+00	-4.884981e-15	-4.884981e-15
-8.737853e-01	3.440144e+00	3.440144e+00
0.000000e+00	5.684342e-14	5.684342e-14
-1.137914e-01	-1.910767e+03	-1.910767e+03
0.000000e+00	-1.216167e-13	-1.216167e-13
...
0.000000e+00	-1.025006e-14	-1.025006e-14
-1.301983e-02	-1.082849e-06	-1.082849e-06
0.000000e+00	1.510091e-15	1.510091e-15
-1.337869e-01	-7.934514e-08	-7.934514e-08
0.000000e+00	-8.117673e-15	-8.117673e-15
-7.678387e-01	-1.410669e-07	-1.410669e-07
0.000000e+00	-1.461784e-15	-1.461784e-15
-2.461354e+00	-1.122315e-07	-1.122315e-07
0.000000e+00	-5.503621e-15	-5.503621e-15
-4.406830e+00	3.641558e-08	3.641558e-08
3D FFT lmem=91125
Scale =1.000000e+00
Data(in)	Data(out)	Data(scal)
-0.000000e+00	-4.906769e+00	-4.906769e+00
0.000000e+00	-2.356712e-16	-2.356712e-16
4.989210e-03	-4.287592e+00	-4.287592e+00
-5.913610e-12	-1.706342e-16	-1.706342e-16
-7.096167e-02	-2.971417e+00	-2.971417e+00
1.001137e-12	-1.760707e-16	-1.760707e-16
1.218475e-03	-1.806659e+00	-1.806659e+00
-8.772642e-14	-1.491324e-16	-1.491324e-16
-1.974872e-02	-1.077957e+00	-1.077957e+00
-6.729876e-14	-1.690240e-16	-1.690240e-16
...
2.269797e-18	-1.911902e-16	-1.911902e-16
-1.743758e-13	-1.703231e-01	-1.703231e-01
-6.102642e-19	-9.117507e-17	-9.117507e-17
-1.242390e-14	-4.326859e-01	-4.326859e-01
8.508129e-19	4.574670e-17	4.574670e-17
-2.145115e-14	-8.732470e-01	-8.732470e-01
-1.241287e-18	-1.894502e-16	-1.894502e-16
-1.657406e-14	-1.466379e+00	-1.466379e+00
-2.013508e-19	7.288155e-17	7.288155e-17
5.218050e-15	-1.944713e+00	-1.944713e+00
3D FFT lmem=91125
Scale =1.000000e+00
Data(in)	Data(out)	Data(scal)
0.000000e+00	4.646597e-13	4.646597e-13
0.000000e+00	-1.853511e-16	-1.853511e-16
2.539377e-13	-1.011749e+00	-1.011749e+00
1.790193e-04	4.169225e-16	4.169225e-16
-3.439217e-13	-1.495482e+00	-1.495482e+00
1.735982e-02	-3.183076e-16	-3.183076e-16
1.017130e-13	-1.365701e+00	-1.365701e+00
1.320515e-03	1.023071e-16	1.023071e-16
1.849493e-13	-9.257192e-01	-9.257192e-01
1.401066e-02	3.225002e-16	3.225002e-16
...
-2.599165e-15	1.638333e-16	1.638333e-16
6.096798e-16	1.619223e-01	1.619223e-01
3.139652e-16	-9.537386e-17	-9.537386e-17
-9.239251e-16	2.008676e-01	2.008676e-01
-2.507468e-15	1.466569e-16	1.466569e-16
1.458097e-15	2.106459e-01	2.106459e-01
4.067710e-15	-1.070671e-16	-1.070671e-16
2.548022e-16	1.658808e-01	1.658808e-01
-2.091999e-15	4.388436e-17	4.388436e-17
-1.231194e-15	6.364396e-02	6.364396e-02
3D FFT lmem=91125
Scale =1.000000e+00
Data(in)	Data(out)	Data(scal)
0.000000e+00	-5.788686e-12	-5.788686e-12
0.000000e+00	-3.682170e-16	-3.682170e-16
0.000000e+00	7.434223e-13	7.434223e-13
0.000000e+00	-1.437972e-16	-1.437972e-16
0.000000e+00	6.661087e-12	6.661087e-12
0.000000e+00	-1.105717e-16	-1.105717e-16
0.000000e+00	8.436919e-12	8.436919e-12
0.000000e+00	-7.041153e-17	-7.041153e-17
0.000000e+00	1.674423e-12	1.674423e-12
0.000000e+00	-2.300399e-17	-2.300399e-17
...
-3.363625e-15	1.056112e-16	1.056112e-16
7.451642e-16	1.992429e-02	1.992429e-02
3.837353e-16	5.829102e-17	5.829102e-17
-1.069808e-15	3.125255e-02	3.125255e-02
-2.903384e-15	2.690496e-17	2.690496e-17
1.603907e-15	4.533942e-02	4.533942e-02
4.474481e-15	-4.643658e-17	-4.643658e-17
2.669356e-16	5.906039e-02	5.906039e-02
-2.191618e-15	2.712314e-17	2.712314e-17
-1.231194e-15	6.773400e-02	6.773400e-02
3D FFT lmem=91125
Scale =1.000000e+00
Data(in)	Data(out)	Data(scal)
0.000000e+00	1.070468e-12	1.070468e-12
0.000000e+00	-2.786890e-16	-2.786890e-16
0.000000e+00	4.155125e-12	4.155125e-12
0.000000e+00	-8.827001e-17	-8.827001e-17
0.000000e+00	9.050021e-12	9.050021e-12
0.000000e+00	-3.159201e-16	-3.159201e-16
0.000000e+00	1.066670e-11	1.066670e-11
0.000000e+00	-1.213672e-16	-1.213672e-16
0.000000e+00	7.870737e-12	7.870737e-12
0.000000e+00	-5.098371e-17	-5.098371e-17
...
-3.363625e-15	-1.157595e-17	-1.157595e-17
7.451642e-16	1.745517e-02	1.745517e-02
3.837353e-16	-9.714358e-18	-9.714358e-18
-1.069808e-15	2.810731e-02	2.810731e-02
-2.903384e-15	3.802353e-17	3.802353e-17
1.603907e-15	4.149007e-02	4.149007e-02
4.474481e-15	-1.180078e-16	-1.180078e-16
2.669356e-16	5.461447e-02	5.461447e-02
-2.191618e-15	6.198304e-17	6.198304e-17
-1.231194e-15	6.294309e-02	6.294309e-02
3D FFT lmem=91125
Scale =1.000000e+00
Data(in)	Data(out)	Data(scal)
2.889619e-16	2.826219e-08	2.826219e-08
0.000000e+00	0.000000e+00	0.000000e+00
-1.120952e-02	4.056170e-08	4.056170e-08
0.000000e+00	-6.650319e+01	-6.650319e+01
-2.059129e-02	-8.210908e-08	-8.210908e-08
0.000000e+00	5.794360e+02	5.794360e+02
-2.785611e-02	3.651774e-09	3.651774e-09
0.000000e+00	1.305431e+02	1.305431e+02
-3.253275e-02	4.099986e-08	4.099986e-08
0.000000e+00	1.074827e+02	1.074827e+02
...
0.000000e+00	-1.953403e-03	-1.953403e-03
2.663195e-02	-5.481653e-11	-5.481653e-11
0.000000e+00	-9.934859e-04	-9.934859e-04
2.421332e-02	-9.306106e-11	-9.306106e-11
0.000000e+00	1.805747e-03	1.805747e-03
2.004979e-02	-4.131039e-12	-4.131039e-12
0.000000e+00	-2.538189e-04	-2.538189e-04
1.370444e-02	4.013876e-10	4.013876e-10
0.000000e+00	4.622221e-05	4.622221e-05
5.006034e-03	-2.550561e-10	-2.550561e-10
3D FFT lmem=91125
Scale =1.000000e+00
Data(in)	Data(out)	Data(scal)
-3.599860e-15	7.116455e-09	7.116455e-09
0.000000e+00	0.000000e+00	0.000000e+00
8.236633e-15	3.219212e-08	3.219212e-08
0.000000e+00	5.435534e-09	5.435534e-09
9.171655e-14	-8.349426e-09	-8.349426e-09
0.000000e+00	-1.322223e-10	-1.322223e-10
1.720873e-13	2.009728e-08	2.009728e-08
0.000000e+00	4.172675e-09	4.172675e-09
5.884460e-14	-8.680322e-09	-8.680322e-09
0.000000e+00	1.335266e-09	1.335266e-09
...
0.000000e+00	-3.226691e-03	-3.226691e-03
3.277020e-03	-7.174239e-10	-7.174239e-10
0.000000e+00	2.418666e-03	2.418666e-03
3.767297e-03	2.997134e-10	2.997134e-10
0.000000e+00	1.812819e-03	1.812819e-03
4.315515e-03	4.413617e-10	4.413617e-10
0.000000e+00	-2.365579e-03	-2.365579e-03
4.879345e-03	3.505109e-10	3.505109e-10
0.000000e+00	1.723300e-03	1.723300e-03
5.327744e-03	-9.318071e-10	-9.318071e-10
3D FFT lmem=91125
Scale =1.000000e+00
Data(in)	Data(out)	Data(scal)
6.657015e-16	3.384231e-08	3.384231e-08
0.000000e+00	0.000000e+00	0.000000e+00
4.603606e-14	2.269142e-08	2.269142e-08
0.000000e+00	-2.268392e-09	-2.268392e-09
1.246098e-13	8.147711e-09	8.147711e-09
0.000000e+00	4.506500e-09	4.506500e-09
2.175679e-13	-9.567123e-09	-9.567123e-09
0.000000e+00	5.079446e-09	5.079446e-09
2.766030e-13	-1.020990e-08	-1.020990e-08
0.000000e+00	-1.130669e-09	-1.130669e-09
...
0.000000e+00	1.559580e-03	1.559580e-03
2.870915e-03	1.242357e-10	1.242357e-10
0.000000e+00	-1.418630e-03	-1.418630e-03
3.388159e-03	-1.757546e-10	-1.757546e-10
0.000000e+00	-7.593340e-05	-7.593340e-05
3.949125e-03	1.144616e-11	1.144616e-11
0.000000e+00	1.715256e-03	1.715256e-03
4.512039e-03	-1.061669e-10	-1.061669e-10
0.000000e+00	4.940334e-04	4.940334e-04
4.950906e-03	-1.937923e-10	-1.937923e-10
3D FFT lmem=91125
Scale =1.000000e+00
Data(in)	Data(out)	Data(scal)
0.000000e+00	-2.253421e-01	-2.253421e-01
0.000000e+00	-1.339556e-16	-1.339556e-16
5.941556e-04	-2.002954e-01	-2.002954e-01
3.623880e-13	-5.278403e-17	-5.278403e-17
-1.035364e-02	-1.821001e-01	-1.821001e-01
-1.467165e-12	-5.493686e-17	-5.493686e-17
-3.498911e-03	-1.386897e-01	-1.386897e-01
9.787750e-14	-7.671071e-17	-7.671071e-17
-3.841104e-03	-1.151202e-01	-1.151202e-01
1.465211e-12	-7.379420e-17	-7.379420e-17
...
-5.852869e-14	-3.225606e-17	-3.225606e-17
-3.679152e-08	-7.864043e-02	-7.864043e-02
-1.254085e-13	-6.145748e-17	-6.145748e-17
-6.479172e-07	-1.030050e-01	-1.030050e-01
8.567334e-15	3.915251e-17	3.915251e-17
1.731767e-07	-1.240838e-01	-1.240838e-01
8.826274e-14	-5.720933e-17	-5.720933e-17
-4.444964e-07	-1.517548e-01	-1.517548e-01
1.233346e-13	2.379584e-17	2.379584e-17
3.014976e-07	-1.729313e-01	-1.729313e-01
3D FFT lmem=91125
Scale =1.000000e+00
Data(in)	Data(out)	Data(scal)
-3.086249e-02	-1.121356e+02	-1.121356e+02
0.000000e+00	0.000000e+00	0.000000e+00
-2.741676e-02	3.413720e+00	3.413720e+00
0.000000e+00	-1.579229e-09	-1.579229e-09
-2.015826e-02	-4.692167e+01	-4.692167e+01
0.000000e+00	-9.628069e-10	-9.628069e-10
-1.334334e-02	-2.067120e+00	-2.067120e+00
0.000000e+00	8.652614e-11	8.652614e-11
-8.802640e-03	-1.323002e+01	-1.323002e+01
0.000000e+00	9.000732e-10	9.000732e-10
...
0.000000e+00	-2.587170e-11	-2.587170e-11
-3.379070e-03	-2.037682e-05	-2.037682e-05
0.000000e+00	-5.656545e-11	-5.656545e-11
-5.067552e-03	-2.966825e-04	-2.966825e-04
0.000000e+00	5.016521e-12	5.016521e-12
-7.645262e-03	7.734312e-05	7.734312e-05
0.000000e+00	4.004707e-11	4.004707e-11
-1.099115e-02	-2.052842e-04	-2.052842e-04
0.000000e+00	5.369626e-11	5.369626e-11
-1.363884e-02	1.406060e-04	1.406060e-04
3D FFT lmem=15625
Scale =1.000000e+00
Data(in)	Data(out)	Data(scal)
-1.230569e-03	-3.055677e-02	-3.055677e-02
0.000000e+00	-1.927667e-18	-1.927667e-18
3.746195e-05	-2.163174e-02	-2.163174e-02
-1.733036e-14	-2.479600e-18	-2.479600e-18
-5.149155e-04	-1.033003e-02	-1.033003e-02
-1.056578e-14	-4.160592e-19	-4.160592e-19
-2.268445e-05	-5.103648e-03	-5.103648e-03
9.495324e-16	1.569386e-18	1.569386e-18
-1.451854e-04	-2.907852e-03	-2.907852e-03
9.877347e-15	-1.178557e-18	-1.178557e-18
...
1.097364e-16	2.085267e-20	2.085267e-20
5.053664e-08	-1.226393e-03	-1.226393e-03
-1.893870e-15	1.113958e-19	1.113958e-19
-6.354957e-08	-1.789915e-03	-1.789915e-03
-2.582178e-15	-1.674280e-18	-1.674280e-18
-6.814771e-08	-3.239756e-03	-3.239756e-03
3.714131e-15	-4.626953e-19	-4.626953e-19
1.991307e-09	-6.477384e-03	-6.477384e-03
-5.022556e-16	-8.775845e-19	-8.775845e-19
-3.135336e-08	-1.136769e-02	-1.136769e-02
3D FFT lmem=3375
Scale =1.000000e+00
Data(in)	Data(out)	Data(scal)
-1.230569e-03	-2.667276e-02	-2.667276e-02
0.000000e+00	-1.653073e-18	-1.653073e-18
3.746195e-05	-1.362549e-02	-1.362549e-02
-1.733036e-14	-7.321937e-19	-7.321937e-19
-5.149155e-04	-3.738494e-03	-3.738494e-03
-1.056578e-14	-6.955343e-19	-6.955343e-19
-2.268445e-05	-1.808611e-03	-1.808611e-03
9.495324e-16	-2.618534e-19	-2.618534e-19
-1.451854e-04	-1.239064e-03	-1.239064e-03
9.877347e-15	6.772692e-19	6.772692e-19
...
2.382357e-15	-1.020340e-18	-1.020340e-18
-1.202390e-06	-1.388453e-03	-1.388453e-03
-3.551652e-14	-6.760441e-19	-6.760441e-19
3.943349e-07	-8.730481e-04	-8.730481e-04
-1.659301e-14	8.124163e-19	8.124163e-19
-1.665718e-06	-1.446094e-03	-1.446094e-03
3.271075e-14	8.866275e-19	8.866275e-19
-5.680013e-07	-2.696477e-03	-2.696477e-03
9.810588e-15	1.764000e-19	1.764000e-19
-6.842284e-07	-7.947184e-03	-7.947184e-03
3D FFT lmem=729
Scale =1.000000e+00
Data(in)	Data(out)	Data(scal)
-1.230569e-03	-1.995013e-02	-1.995013e-02
0.000000e+00	-5.598703e-19	-5.598703e-19
3.746195e-05	-6.245459e-03	-6.245459e-03
-1.733036e-14	3.750097e-19	3.750097e-19
-5.149155e-04	-1.809657e-03	-1.809657e-03
-1.056578e-14	-1.670914e-19	-1.670914e-19
-2.268445e-05	-1.615981e-03	-1.615981e-03
9.495324e-16	4.913218e-20	4.913218e-20
-1.451854e-04	-9.133901e-03	-9.133901e-03
9.877347e-15	-7.449849e-19	-7.449849e-19
...
-5.355863e-15	3.327336e-19	3.327336e-19
-4.357750e-05	-1.259365e-02	-1.259365e-02
1.671299e-15	7.619570e-19	7.619570e-19
3.559109e-06	-4.602059e-03	-4.602059e-03
-3.404634e-15	7.763070e-19	7.763070e-19
-4.157419e-05	-9.776116e-04	-9.776116e-04
1.416727e-14	-3.489853e-20	-3.489853e-20
1.351675e-07	-8.913153e-04	-8.913153e-04
7.464481e-15	2.566734e-19	2.566734e-19
-2.641694e-05	-4.303070e-03	-4.303070e-03
     1 OT CG       0.15E+00    2.5     0.08437669       -30.1755500486 -3.02E+01
3D FFT lmem=91125
Scale =1.000000e+00
Data(in)	Data(out)	Data(scal)
8.609341e-01	7.666662e+02	7.666662e+02
0.000000e+00	0.000000e+00	0.000000e+00
7.817811e-01	-2.314834e+01	-2.314834e+01
0.000000e+00	-1.156200e-10	-1.156200e-10
5.865361e-01	6.145908e+02	6.145908e+02
0.000000e+00	-1.402465e-09	-1.402465e-09
3.657843e-01	-1.726967e+01	-1.726967e+01
0.000000e+00	2.498152e-10	2.498152e-10
1.915552e-01	3.197461e+02	3.197461e+02
0.000000e+00	-1.217750e-09	-1.217750e-09
...
0.000000e+00	3.818403e-12	3.818403e-12
1.300950e-02	2.877214e-12	2.877214e-12
0.000000e+00	-5.249589e-12	-5.249589e-12
2.469460e-02	-5.141576e-12	-5.141576e-12
0.000000e+00	-1.375573e-12	-1.375573e-12
4.031506e-02	-2.676689e-13	-2.676689e-13
0.000000e+00	6.914175e-13	6.914175e-13
5.618720e-02	-5.681905e-12	-5.681905e-12
0.000000e+00	-1.536885e-12	-1.536885e-12
6.644305e-02	-8.496375e-13	-8.496375e-13
3D FFT lmem=15625
Scale =1.000000e+00
Data(in)	Data(out)	Data(scal)
7.428429e-02	1.385391e+02	1.385391e+02
0.000000e+00	0.000000e+00	0.000000e+00
6.537379e-02	-8.503870e+00	-8.503870e+00
0.000000e+00	-5.596292e-09	-5.596292e-09
4.477032e-02	6.882414e+01	6.882414e+01
0.000000e+00	-5.804806e-09	-5.804806e-09
2.439208e-02	-1.107060e+00	-1.107060e+00
0.000000e+00	-3.207399e-09	-3.207399e-09
1.151951e-02	1.242543e+01	1.242543e+01
0.000000e+00	-3.764102e-10	-3.764102e-10
...
0.000000e+00	1.821922e-12	1.821922e-12
1.522580e-02	-1.704944e-13	-1.704944e-13
0.000000e+00	2.239995e-12	2.239995e-12
3.020569e-02	1.363775e-12	1.363775e-12
0.000000e+00	-9.445312e-13	-9.445312e-13
5.578802e-02	5.722737e-12	5.722737e-12
0.000000e+00	3.117357e-13	3.117357e-13
8.916618e-02	3.862338e-13	3.862338e-13
0.000000e+00	1.301706e-12	1.301706e-12
1.149443e-01	4.861282e-12	4.861282e-12
3D FFT lmem=3375
Scale =1.000000e+00
Data(in)	Data(out)	Data(scal)
4.830001e-03	3.284035e+01	3.284035e+01
0.000000e+00	0.000000e+00	0.000000e+00
3.431880e-03	1.321054e+00	1.321054e+00
0.000000e+00	1.583225e-09	1.583225e-09
1.523263e-03	4.692029e+00	4.692029e+00
0.000000e+00	1.399585e-09	1.399585e-09
2.064802e-03	-9.620212e-02	-9.620212e-02
0.000000e+00	7.613496e-10	7.613496e-10
5.385150e-03	2.394014e-01	2.394014e-01
0.000000e+00	6.826071e-11	6.826071e-11
...
0.000000e+00	2.087374e-13	2.087374e-13
5.952285e-03	-2.576603e-12	-2.576603e-12
0.000000e+00	1.597676e-11	1.597676e-11
1.288459e-02	1.514128e-12	1.514128e-12
0.000000e+00	8.807754e-12	8.807754e-12
2.191944e-02	-2.026999e-12	-2.026999e-12
0.000000e+00	-1.327120e-11	-1.327120e-11
3.103125e-02	-5.130563e-12	-5.130563e-12
0.000000e+00	-1.763285e-12	-1.763285e-12
3.703057e-02	-2.424604e-12	-2.424604e-12
3D FFT lmem=729
Scale =1.000000e+00
Data(in)	Data(out)	Data(scal)
0.000000e+00	0.000000e+00	0.000000e+00
0.000000e+00	0.000000e+00	0.000000e+00
0.000000e+00	0.000000e+00	0.000000e+00
0.000000e+00	0.000000e+00	0.000000e+00
0.000000e+00	0.000000e+00	0.000000e+00
0.000000e+00	0.000000e+00	0.000000e+00
0.000000e+00	0.000000e+00	0.000000e+00
0.000000e+00	0.000000e+00	0.000000e+00
0.000000e+00	0.000000e+00	0.000000e+00
0.000000e+00	0.000000e+00	0.000000e+00
...
0.000000e+00	0.000000e+00	0.000000e+00
0.000000e+00	0.000000e+00	0.000000e+00
0.000000e+00	0.000000e+00	0.000000e+00
0.000000e+00	0.000000e+00	0.000000e+00
0.000000e+00	0.000000e+00	0.000000e+00
0.000000e+00	0.000000e+00	0.000000e+00
0.000000e+00	0.000000e+00	0.000000e+00
0.000000e+00	0.000000e+00	0.000000e+00
0.000000e+00	0.000000e+00	0.000000e+00
0.000000e+00	0.000000e+00	0.000000e+00
3D FFT lmem=91125
Scale =1.000000e+00
Data(in)	Data(out)	Data(scal)
2.701033e-02	9.400484e-01	9.400484e-01
0.000000e+00	-9.069682e-28	-9.069682e-28
-4.068527e-04	8.578366e-01	8.578366e-01
1.096721e-13	3.224677e-17	3.224677e-17
1.253946e-02	6.541322e-01	6.541322e-01
2.779365e-14	7.530102e-17	7.530102e-17
-2.888724e-04	4.214023e-01	4.214023e-01
2.305296e-14	3.815293e-17	3.815293e-17
4.375035e-03	2.340555e-01	2.340555e-01
-1.722837e-14	7.995166e-17	7.995166e-17
...
4.190291e-17	2.482954e-17	2.482954e-17
3.157437e-17	1.032500e-01	1.032500e-01
-5.760865e-17	1.802352e-17	1.802352e-17
-5.642333e-17	1.367710e-01	1.367710e-01
-1.509545e-17	-2.872969e-18	-2.872969e-18
-2.937381e-18	1.742380e-01	1.742380e-01
7.587572e-18	1.138604e-19	1.138604e-19
-6.235287e-17	2.081857e-01	2.081857e-01
-1.686568e-17	8.407309e-18	8.407309e-18
-9.323868e-18	2.287689e-01	2.287689e-01
3D FFT lmem=91125
Scale =1.000000e+00
Data(in)	Data(out)	Data(scal)
-1.201487e+01	-2.461316e+03	-2.461316e+03
0.000000e+00	0.000000e+00	0.000000e+00
-8.979226e+00	-1.286460e+01	-1.286460e+01
0.000000e+00	8.321527e-11	8.321527e-11
-3.747992e+00	-2.301921e+03	-2.301921e+03
0.000000e+00	-1.288841e-11	-1.288841e-11
-8.737720e-01	-1.127573e+01	-1.127573e+01
0.000000e+00	2.184274e-10	2.184274e-10
-1.137725e-01	-1.883039e+03	-1.883039e+03
0.000000e+00	-2.081092e-11	-2.081092e-11
...
0.000000e+00	1.228600e-14	1.228600e-14
-1.293417e-02	-1.069636e-06	-1.069636e-06
0.000000e+00	1.053560e-15	1.053560e-15
-1.328803e-01	-8.333755e-08	-8.333755e-08
0.000000e+00	5.149024e-15	5.149024e-15
-7.625214e-01	-1.412758e-07	-1.412758e-07
0.000000e+00	3.476379e-15	3.476379e-15
-2.444067e+00	-1.103981e-07	-1.103981e-07
0.000000e+00	-1.107632e-15	-1.107632e-15
-4.375660e+00	3.521282e-08	3.521282e-08
3D FFT lmem=91125
Scale =1.000000e+00
Data(in)	Data(out)	Data(scal)
0.000000e+00	2.482383e-12	2.482383e-12
0.000000e+00	-3.083878e-16	-3.083878e-16
-8.928763e-14	-9.126967e-01	-9.126967e-01
-3.312322e-04	5.065525e-16	5.065525e-16
-4.525545e-14	-1.365222e+00	-1.365222e+00
2.041757e-02	-3.161259e-16	-3.161259e-16
-5.630451e-14	-1.273193e+00	-1.273193e+00
-7.055415e-04	4.995456e-17	4.995456e-17
5.610473e-14	-8.905333e-01	-8.905333e-01
1.424744e-02	3.376616e-16	3.376616e-16
...
-2.760774e-16	9.687835e-17	9.687835e-17
8.442197e-16	1.758454e-01	1.758454e-01
4.627032e-16	3.561744e-17	3.561744e-17
2.335043e-16	2.121320e-01	2.121320e-01
-8.727856e-16	-1.975148e-17	-1.975148e-17
-1.235458e-16	2.173589e-01	2.173589e-01
-4.782837e-17	-2.973127e-17	-2.973127e-17
2.883490e-16	1.684143e-01	1.684143e-01
-1.066034e-15	3.719220e-18	3.719220e-18
3.466275e-16	6.408412e-02	6.408412e-02
3D FFT lmem=91125
Scale =1.000000e+00
Data(in)	Data(out)	Data(scal)
0.000000e+00	6.485643e-13	6.485643e-13
0.000000e+00	-2.587353e-16	-2.587353e-16
-0.000000e+00	1.488849e-12	1.488849e-12
0.000000e+00	-1.298695e-16	-1.298695e-16
0.000000e+00	2.120615e-12	2.120615e-12
0.000000e+00	-9.654114e-17	-9.654114e-17
-0.000000e+00	1.662221e-12	1.662221e-12
0.000000e+00	-6.826890e-17	-6.826890e-17
0.000000e+00	5.907360e-13	5.907360e-13
0.000000e+00	-4.612215e-17	-4.612215e-17
...
-3.572767e-16	1.235070e-17	1.235070e-17
1.031824e-15	1.980256e-02	1.980256e-02
5.655261e-16	-3.169642e-17	-3.169642e-17
2.703734e-16	3.063911e-02	3.063911e-02
-1.010594e-15	3.785784e-17	3.785784e-17
-1.359004e-16	4.387784e-02	4.387784e-02
-5.261120e-17	-3.426239e-17	-3.426239e-17
3.020799e-16	5.660327e-02	5.660327e-02
-1.116797e-15	1.485180e-16	1.485180e-16
3.466275e-16	6.458289e-02	6.458289e-02
3D FFT lmem=91125
Scale =1.000000e+00
Data(in)	Data(out)	Data(scal)
0.000000e+00	1.622241e-12	1.622241e-12
0.000000e+00	-4.069143e-17	-4.069143e-17
-0.000000e+00	1.957950e-12	1.957950e-12
0.000000e+00	-7.903219e-17	-7.903219e-17
0.000000e+00	2.144624e-12	2.144624e-12
0.000000e+00	-2.648945e-16	-2.648945e-16
-0.000000e+00	1.500392e-12	1.500392e-12
0.000000e+00	4.423496e-17	4.423496e-17
0.000000e+00	8.073464e-13	8.073464e-13
0.000000e+00	-9.094635e-17	-9.094635e-17
...
-3.572767e-16	5.081498e-17	5.081498e-17
1.031824e-15	1.952824e-02	1.952824e-02
5.655261e-16	4.701413e-17	4.701413e-17
2.703734e-16	3.030065e-02	3.030065e-02
-1.010594e-15	8.089245e-17	8.089245e-17
-1.359004e-16	4.347428e-02	4.347428e-02
-5.261120e-17	1.611647e-17	1.611647e-17
3.020799e-16	5.614614e-02	5.614614e-02
-1.116797e-15	-1.283062e-16	-1.283062e-16
3.466275e-16	6.409546e-02	6.409546e-02
     2 OT LS       0.18E+00    2.4                      -31.6628355705
3D FFT lmem=91125
Scale =1.000000e+00
Data(in)	Data(out)	Data(scal)
8.564337e-01	7.587918e+02	7.587918e+02
0.000000e+00	0.000000e+00	0.000000e+00
7.772020e-01	-9.052892e+00	-9.052892e+00
0.000000e+00	1.275998e-10	1.275998e-10
5.820059e-01	6.093768e+02	6.093768e+02
0.000000e+00	-1.499627e-09	-1.499627e-09
3.618646e-01	-1.153684e+01	-1.153684e+01
0.000000e+00	6.668817e-10	6.668817e-10
1.887748e-01	3.191303e+02	3.191303e+02
0.000000e+00	-1.370081e-09	-1.370081e-09
...
0.000000e+00	6.928662e-12	6.928662e-12
1.516527e-02	2.462943e-12	2.462943e-12
0.000000e+00	-4.299227e-12	-4.299227e-12
2.889276e-02	-9.208452e-12	-9.208452e-12
0.000000e+00	5.190537e-13	5.190537e-13
4.719752e-02	6.216444e-12	6.216444e-12
0.000000e+00	-2.071264e-12	-2.071264e-12
6.575290e-02	-8.708328e-12	-8.708328e-12
0.000000e+00	-2.268420e-12	-2.268420e-12
7.772341e-02	-1.283443e-13	-1.283443e-13
3D FFT lmem=15625
Scale =1.000000e+00
Data(in)	Data(out)	Data(scal)
7.442002e-02	1.400827e+02	1.400827e+02
0.000000e+00	0.000000e+00	0.000000e+00
6.562780e-02	-3.769199e+00	-3.769199e+00
0.000000e+00	-1.000342e-08	-1.000342e-08
4.547984e-02	6.861733e+01	6.861733e+01
0.000000e+00	-6.184569e-09	-6.184569e-09
2.581925e-02	9.112249e-01	9.112249e-01
0.000000e+00	-5.503273e-09	-5.503273e-09
1.339652e-02	1.216332e+01	1.216332e+01
0.000000e+00	-3.464175e-10	-3.464175e-10
...
0.000000e+00	8.485388e-13	8.485388e-13
1.730650e-02	-2.779410e-13	-2.779410e-13
0.000000e+00	1.611716e-12	1.611716e-12
3.378999e-02	2.685711e-12	2.685711e-12
0.000000e+00	-8.365562e-13	-8.365562e-13
6.123164e-02	8.857186e-12	8.857186e-12
0.000000e+00	-7.548331e-13	-7.548331e-13
9.621664e-02	-4.640789e-13	-4.640789e-13
0.000000e+00	3.357208e-12	3.357208e-12
1.228468e-01	1.029617e-11	1.029617e-11
3D FFT lmem=3375
Scale =1.000000e+00
Data(in)	Data(out)	Data(scal)
1.013822e-02	3.273242e+01	3.273242e+01
0.000000e+00	0.000000e+00	0.000000e+00
6.400915e-03	1.580489e+00	1.580489e+00
0.000000e+00	2.304198e-09	2.304198e-09
4.854008e-04	5.549319e+00	5.549319e+00
0.000000e+00	1.681316e-09	1.681316e-09
-9.896145e-04	-9.278519e-02	-9.278519e-02
0.000000e+00	1.215776e-09	1.215776e-09
1.685062e-03	4.992813e-01	4.992813e-01
0.000000e+00	2.750887e-11	2.750887e-11
...
0.000000e+00	-2.783692e-12	-2.783692e-12
6.035224e-03	-4.148335e-12	-4.148335e-12
0.000000e+00	4.080123e-11	4.080123e-11
1.316990e-02	1.226108e-12	1.226108e-12
0.000000e+00	1.858996e-11	1.858996e-11
2.194575e-02	-7.637721e-12	-7.637721e-12
0.000000e+00	-2.984807e-11	-2.984807e-11
3.060747e-02	-9.457452e-12	-9.457452e-12
0.000000e+00	-5.473337e-12	-5.473337e-12
3.636135e-02	-2.188415e-11	-2.188415e-11
3D FFT lmem=729
Scale =1.000000e+00
Data(in)	Data(out)	Data(scal)
0.000000e+00	0.000000e+00	0.000000e+00
0.000000e+00	0.000000e+00	0.000000e+00
0.000000e+00	0.000000e+00	0.000000e+00
0.000000e+00	0.000000e+00	0.000000e+00
0.000000e+00	0.000000e+00	0.000000e+00
0.000000e+00	0.000000e+00	0.000000e+00
0.000000e+00	0.000000e+00	0.000000e+00
0.000000e+00	0.000000e+00	0.000000e+00
0.000000e+00	0.000000e+00	0.000000e+00
0.000000e+00	0.000000e+00	0.000000e+00
...
0.000000e+00	0.000000e+00	0.000000e+00
0.000000e+00	0.000000e+00	0.000000e+00
0.000000e+00	0.000000e+00	0.000000e+00
0.000000e+00	0.000000e+00	0.000000e+00
0.000000e+00	0.000000e+00	0.000000e+00
0.000000e+00	0.000000e+00	0.000000e+00
0.000000e+00	0.000000e+00	0.000000e+00
0.000000e+00	0.000000e+00	0.000000e+00
0.000000e+00	0.000000e+00	0.000000e+00
0.000000e+00	0.000000e+00	0.000000e+00
3D FFT lmem=91125
Scale =1.000000e+00
Data(in)	Data(out)	Data(scal)
2.699072e-02	9.409920e-01	9.409920e-01
0.000000e+00	4.986649e-28	4.986649e-28
1.277185e-04	8.584409e-01	8.584409e-01
4.390669e-14	-1.496548e-17	-1.496548e-17
1.272301e-02	6.540734e-01	6.540734e-01
8.589836e-14	1.410682e-17	1.410682e-17
-9.577805e-05	4.209662e-01	4.209662e-01
1.533891e-14	-1.021610e-18	-1.021610e-18
4.428504e-03	2.336979e-01	2.336979e-01
-2.905513e-14	3.140724e-17	3.140724e-17
...
7.603469e-17	4.189808e-17	4.189808e-17
2.702818e-17	1.107503e-01	1.107503e-01
-4.717944e-17	-1.001474e-17	-1.001474e-17
-1.010530e-16	1.472209e-01	1.472209e-01
5.696063e-18	-4.565373e-17	-4.565373e-17
6.821887e-17	1.881171e-01	1.881171e-01
-2.272992e-17	-4.384703e-17	-4.384703e-17
-9.556465e-17	2.252597e-01	2.252597e-01
-2.489350e-17	-4.481791e-17	-4.481791e-17
-1.408442e-18	2.478128e-01	2.478128e-01
3D FFT lmem=91125
Scale =1.000000e+00
Data(in)	Data(out)	Data(scal)
-1.200615e+01	-2.459530e+03	-2.459530e+03
0.000000e+00	0.000000e+00	0.000000e+00
-8.972525e+00	-1.425194e+01	-1.425194e+01
0.000000e+00	1.006911e-10	1.006911e-10
-3.744960e+00	-2.300249e+03	-2.300249e+03
0.000000e+00	3.695647e-12	3.695647e-12
-8.729739e-01	-1.249647e+01	-1.249647e+01
0.000000e+00	2.644216e-10	2.644216e-10
-1.136520e-01	-1.881669e+03	-1.881669e+03
0.000000e+00	6.145559e-12	6.145559e-12
...
0.000000e+00	-1.101977e-14	-1.101977e-14
-1.288222e-02	-1.069046e-06	-1.069046e-06
0.000000e+00	5.514160e-16	5.514160e-16
-1.323626e-01	-8.291412e-08	-8.291412e-08
0.000000e+00	-1.646980e-14	-1.646980e-14
-7.596197e-01	-1.406856e-07	-1.406856e-07
0.000000e+00	-5.122317e-16	-5.122317e-16
-2.434913e+00	-1.107255e-07	-1.107255e-07
0.000000e+00	-2.032442e-14	-2.032442e-14
-4.359404e+00	3.521467e-08	3.521467e-08
3D FFT lmem=91125
Scale =1.000000e+00
Data(in)	Data(out)	Data(scal)
-0.000000e+00	-4.991075e+00	-4.991075e+00
0.000000e+00	-2.224687e-16	-2.224687e-16
-5.437743e-04	-4.368502e+00	-4.368502e+00
8.533839e-13	-1.743239e-16	-1.743239e-16
-5.934112e-02	-3.043716e+00	-3.043716e+00
4.073326e-13	-3.322284e-16	-3.322284e-16
-4.906497e-04	-1.868650e+00	-1.868650e+00
3.842530e-14	-1.473781e-16	-1.473781e-16
-1.922082e-02	-1.130984e+00	-1.130984e+00
-3.434890e-14	-2.977384e-16	-2.977384e-16
...
1.144998e-18	-5.448924e-16	-5.448924e-16
-1.721531e-13	-9.947589e-02	-9.947589e-02
-6.922356e-19	-1.626902e-16	-1.626902e-16
-1.298176e-14	-3.483451e-01	-3.483451e-01
7.868019e-20	-1.431313e-16	-1.431313e-16
-2.139568e-14	-7.746997e-01	-7.746997e-01
-3.150928e-19	-1.097672e-16	-1.097672e-16
-1.635132e-14	-1.354319e+00	-1.354319e+00
-3.379622e-19	-1.175640e-18	-1.175640e-18
5.045883e-15	-1.823664e+00	-1.823664e+00
3D FFT lmem=91125
Scale =1.000000e+00
Data(in)	Data(out)	Data(scal)
0.000000e+00	2.631331e-12	2.631331e-12
0.000000e+00	-1.966268e-16	-1.966268e-16
-3.574588e-14	-9.162512e-01	-9.162512e-01
1.039798e-04	3.514389e-16	3.514389e-16
-1.398653e-13	-1.368724e+00	-1.368724e+00
2.071645e-02	-2.311399e-16	-2.311399e-16
-3.746373e-14	-1.273928e+00	-1.273928e+00
-2.339282e-04	5.937882e-17	5.937882e-17
9.461893e-14	-8.892358e-01	-8.892358e-01
1.442156e-02	2.556555e-16	2.556555e-16
...
-7.328309e-16	2.070021e-16	2.070021e-16
6.913860e-16	1.909388e-01	1.909388e-01
3.960815e-16	-4.822348e-17	-4.822348e-17
-8.810968e-17	2.311975e-01	2.311975e-01
-1.563140e-15	1.186320e-16	1.186320e-16
3.701035e-16	2.375736e-01	2.375736e-01
1.110784e-15	-3.835432e-16	-3.835432e-16
4.255989e-16	1.844383e-01	1.844383e-01
-1.633849e-15	2.438751e-16	2.438751e-16
-4.388771e-17	7.025144e-02	7.025144e-02
3D FFT lmem=91125
Scale =1.000000e+00
Data(in)	Data(out)	Data(scal)
0.000000e+00	-8.409454e-13	-8.409454e-13
0.000000e+00	-1.139923e-16	-1.139923e-16
0.000000e+00	1.575697e-12	1.575697e-12
0.000000e+00	-1.322513e-16	-1.322513e-16
0.000000e+00	3.645055e-12	3.645055e-12
0.000000e+00	-1.370689e-16	-1.370689e-16
-0.000000e+00	3.435754e-12	3.435754e-12
0.000000e+00	-9.616905e-17	-9.616905e-17
0.000000e+00	7.685840e-13	7.685840e-13
0.000000e+00	-1.122295e-16	-1.122295e-16
...
-9.483694e-16	5.096029e-17	5.096029e-17
8.450273e-16	2.259680e-02	2.259680e-02
4.840997e-16	4.826081e-17	4.826081e-17
-1.020217e-16	3.470505e-02	3.470505e-02
-1.809952e-15	5.500508e-17	5.500508e-17
4.071138e-16	4.949499e-02	4.949499e-02
1.221863e-15	1.381531e-16	1.381531e-16
4.458655e-16	6.371431e-02	6.371431e-02
-1.711651e-15	1.796130e-16	1.796130e-16
-4.388771e-17	7.263268e-02	7.263268e-02
3D FFT lmem=91125
Scale =1.000000e+00
Data(in)	Data(out)	Data(scal)
0.000000e+00	4.737082e-13	4.737082e-13
0.000000e+00	-7.954424e-17	-7.954424e-17
0.000000e+00	1.767790e-12	1.767790e-12
0.000000e+00	-2.565131e-16	-2.565131e-16
0.000000e+00	3.229944e-12	3.229944e-12
0.000000e+00	1.599695e-17	1.599695e-17
-0.000000e+00	3.119165e-12	3.119165e-12
0.000000e+00	-5.706211e-17	-5.706211e-17
0.000000e+00	2.042707e-12	2.042707e-12
0.000000e+00	-5.496744e-17	-5.496744e-17
...
-9.483694e-16	6.927634e-17	6.927634e-17
8.450273e-16	2.124703e-02	2.124703e-02
4.840997e-16	-2.835155e-18	-2.835155e-18
-1.020217e-16	3.309094e-02	3.309094e-02
-1.809952e-15	-1.474752e-17	-1.474752e-17
4.071138e-16	4.760962e-02	4.760962e-02
1.221863e-15	-1.208669e-16	-1.208669e-16
4.458655e-16	6.160174e-02	6.160174e-02
-1.711651e-15	-7.422343e-17	-7.422343e-17
-4.388771e-17	7.038972e-02	7.038972e-02
3D FFT lmem=91125
Scale =1.000000e+00
Data(in)	Data(out)	Data(scal)
8.464543e-16	3.174148e-08	3.174148e-08
0.000000e+00	0.000000e+00	0.000000e+00
-1.103481e-02	-1.789751e-09	-1.789751e-09
0.000000e+00	5.074635e+01	5.074635e+01
-2.029026e-02	-4.676386e-08	-4.676386e-08
0.000000e+00	9.527718e+02	9.527718e+02
-2.752926e-02	2.213053e-08	2.213053e-08
0.000000e+00	1.222961e+01	1.222961e+01
-3.235103e-02	1.287149e-08	1.287149e-08
0.000000e+00	-2.698625e+01	-2.698625e+01
...
0.000000e+00	5.604072e-03	5.604072e-03
2.577482e-02	-1.482720e-10	-1.482720e-10
0.000000e+00	2.591518e-03	2.591518e-03
2.308286e-02	2.329024e-10	2.329024e-10
0.000000e+00	-7.493565e-03	-7.493565e-03
1.882903e-02	1.441281e-10	1.441281e-10
0.000000e+00	-1.515324e-03	-1.515324e-03
1.268679e-02	-1.339155e-10	-1.339155e-10
0.000000e+00	4.521578e-03	4.521578e-03
4.582307e-03	-1.135425e-11	-1.135425e-11
3D FFT lmem=91125
Scale =1.000000e+00
Data(in)	Data(out)	Data(scal)
-2.705178e-16	-3.681077e-09	-3.681077e-09
0.000000e+00	0.000000e+00	0.000000e+00
1.897679e-14	9.509596e-09	9.509596e-09
0.000000e+00	2.407550e-09	2.407550e-09
5.403507e-14	4.053115e-10	4.053115e-10
0.000000e+00	-7.820518e-10	-7.820518e-10
7.424581e-14	-1.376760e-09	-1.376760e-09
0.000000e+00	1.122712e-09	1.122712e-09
2.796163e-14	4.832419e-09	4.832419e-09
0.000000e+00	4.816994e-10	4.816994e-10
...
0.000000e+00	3.745618e-03	3.745618e-03
3.050342e-03	-4.447888e-11	-4.447888e-11
0.000000e+00	-6.321735e-03	-6.321735e-03
3.464968e-03	5.627208e-10	5.627208e-10
0.000000e+00	-2.656661e-03	-2.656661e-03
3.922755e-03	1.985785e-10	1.985785e-10
0.000000e+00	4.874733e-03	4.874733e-03
4.382659e-03	-1.478817e-10	-1.478817e-10
0.000000e+00	2.494403e-03	2.494403e-03
4.737629e-03	-2.882521e-10	-2.882521e-10
3D FFT lmem=91125
Scale =1.000000e+00
Data(in)	Data(out)	Data(scal)
1.523838e-16	1.031990e-08	1.031990e-08
0.000000e+00	0.000000e+00	0.000000e+00
2.129025e-14	-3.318036e-10	-3.318036e-10
0.000000e+00	-1.271628e-09	-1.271628e-09
4.788139e-14	8.147878e-09	8.147878e-09
0.000000e+00	1.147203e-09	1.147203e-09
6.740438e-14	3.980981e-09	3.980981e-09
0.000000e+00	1.539359e-09	1.539359e-09
7.431514e-14	-8.408458e-09	-8.408458e-09
0.000000e+00	3.626116e-10	3.626116e-10
...
0.000000e+00	-2.264940e-03	-2.264940e-03
2.868136e-03	3.292179e-10	3.292179e-10
0.000000e+00	7.011026e-03	7.011026e-03
3.303814e-03	3.898883e-10	3.898883e-10
0.000000e+00	2.475450e-03	2.475450e-03
3.773329e-03	-2.935354e-10	-2.935354e-10
0.000000e+00	-5.542378e-03	-5.542378e-03
4.237343e-03	-3.939577e-10	-3.939577e-10
0.000000e+00	-2.532083e-03	-2.532083e-03
4.591327e-03	1.086346e-10	1.086346e-10
3D FFT lmem=91125
Scale =1.000000e+00
Data(in)	Data(out)	Data(scal)
[...]
1.123362e-08	-1.563783e-03	-1.563783e-03
1.306823e-15	-6.352381e-19	-6.352381e-19
-1.220469e-04	-8.125251e-04	-8.125251e-04
-2.883957e-16	2.033681e-18	2.033681e-18
...
4.838388e-16	-5.499633e-19	-5.499633e-19
-1.914856e-06	-1.307989e-03	-1.307989e-03
-1.232237e-15	-5.256215e-19	-5.256215e-19
9.571684e-09	-8.428370e-04	-8.428370e-04
-1.583714e-16	6.873279e-19	6.873279e-19
-1.021151e-06	-1.354334e-03	-1.354334e-03
7.592063e-16	1.124725e-18	1.124725e-18
-3.539599e-08	-2.501836e-03	-2.501836e-03
-7.033587e-17	4.715827e-19	4.715827e-19
-8.025961e-07	-7.522250e-03	-7.522250e-03
3D FFT lmem=729
Scale =1.000000e+00
Data(in)	Data(out)	Data(scal)
-1.163948e-03	-2.004299e-02	-2.004299e-02
0.000000e+00	-6.207244e-19	-6.207244e-19
1.260322e-09	-6.411646e-03	-6.411646e-03
-4.637363e-16	-6.807061e-19	-6.807061e-19
-5.359541e-04	-1.378779e-03	-1.378779e-03
1.340117e-15	4.577062e-19	4.577062e-19
1.123362e-08	-6.535827e-04	-6.535827e-04
1.306823e-15	1.527624e-19	1.527624e-19
-1.220469e-04	-7.382097e-03	-7.382097e-03
-2.883957e-16	6.706545e-19	6.706545e-19
...
8.569352e-17	1.580342e-19	1.580342e-19
-3.240934e-05	-1.192784e-02	-1.192784e-02
-1.138886e-15	4.243231e-19	4.243231e-19
-7.214744e-09	-4.297982e-03	-4.297982e-03
1.392577e-18	-5.974108e-19	-5.974108e-19
-3.649058e-05	-9.819364e-04	-9.819364e-04
5.660527e-16	4.921839e-20	4.921839e-20
1.630440e-08	-8.596812e-04	-8.596812e-04
1.648258e-17	5.483765e-19	5.483765e-19
-2.858746e-05	-4.076143e-03	-4.076143e-03
     3 OT CG       0.23E+00    3.8     0.00000002       -31.9356523442 -3.77E-12

  *** SCF run converged in     3 steps ***


  Electronic density on regular grids:        -12.3997439405        3.6002560595
  Core density on regular grids:               16.0000000000       -0.0000000000
  Hard and soft densities (Lebedev):          -17.0720336892      -13.4717797161
  Total Rho_soft + Rho1_hard - Rho1_soft      -15.9999979136
  Total charge density (r-space):               0.0000020864
  Total Rho_soft + Rho0_soft (g-space):         0.0000020403

  Overlap energy of the core charge distribution:               0.00000000000000
  Self energy of the core charge distribution:                -31.03042709512659
  Core Hamiltonian energy:                                      3.84237985768949
  Hartree energy:                                              11.49933615421552
  Exchange-correlation energy:                                 -4.56605846730009

  GAPW| Exc from hard and soft atomic rho1:                    -4.33723544216046
  GAPW| local Eh = 1 center integrals:                         -7.34364735146789

  Total energy:                                               -31.93565234415002
3D FFT lmem=91125
Scale =1.000000e+00
Data(in)	Data(out)	Data(scal)
8.560628e-01	7.457730e+02	7.457730e+02
0.000000e+00	0.000000e+00	0.000000e+00
7.773070e-01	2.783258e-03	2.783258e-03
0.000000e+00	-1.873302e-09	-1.873302e-09
5.829693e-01	5.973603e+02	5.973603e+02
0.000000e+00	-2.088841e-09	-2.088841e-09
3.631174e-01	2.283994e-03	2.283994e-03
0.000000e+00	-2.701124e-09	-2.701124e-09
1.895418e-01	3.096798e+02	3.096798e+02
0.000000e+00	-1.723063e-09	-1.723063e-09
...
0.000000e+00	7.769194e-13	7.769194e-13
1.324866e-02	5.001927e-13	5.001927e-13
0.000000e+00	-3.006740e-12	-3.006740e-12
2.464558e-02	7.609986e-13	7.609986e-13
0.000000e+00	-1.413700e-12	-1.413700e-12
3.970844e-02	-1.952941e-12	-1.952941e-12
0.000000e+00	2.867669e-12	2.867669e-12
5.489907e-02	-4.125046e-12	-4.125046e-12
0.000000e+00	2.121126e-12	2.121126e-12
6.467233e-02	-1.464258e-12	-1.464258e-12
3D FFT lmem=15625
Scale =1.000000e+00
Data(in)	Data(out)	Data(scal)
7.458125e-02	1.313558e+02	1.313558e+02
0.000000e+00	0.000000e+00	0.000000e+00
6.540440e-02	-8.542557e-04	-8.542557e-04
0.000000e+00	-5.067951e-09	-5.067951e-09
4.416188e-02	6.725757e+01	6.725757e+01
0.000000e+00	-5.501114e-09	-5.501114e-09
2.311463e-02	-1.803408e-04	-1.803408e-04
0.000000e+00	-3.147936e-09	-3.147936e-09
9.764618e-03	1.271769e+01	1.271769e+01
0.000000e+00	-1.425065e-10	-1.425065e-10
...
0.000000e+00	1.135605e-12	1.135605e-12
1.639378e-02	2.273880e-13	2.273880e-13
0.000000e+00	9.020356e-13	9.020356e-13
3.284648e-02	-1.167022e-12	-1.167022e-12
0.000000e+00	2.687756e-13	2.687756e-13
6.066729e-02	1.081129e-12	1.081129e-12
0.000000e+00	-2.964474e-13	-2.964474e-13
9.678286e-02	6.644200e-13	6.644200e-13
0.000000e+00	-3.155731e-13	-3.155731e-13
1.246158e-01	1.670712e-12	1.670712e-12
3D FFT lmem=3375
Scale =1.000000e+00
Data(in)	Data(out)	Data(scal)
2.487396e-03	3.504602e+01	3.504602e+01
0.000000e+00	0.000000e+00	0.000000e+00
2.764988e-03	2.323694e-04	2.323694e-04
0.000000e+00	1.114963e-09	1.114963e-09
4.152559e-03	5.717312e+00	5.717312e+00
0.000000e+00	1.172751e-09	1.172751e-09
7.856598e-03	-4.732053e-05	-4.732053e-05
0.000000e+00	7.277966e-10	7.277966e-10
1.489159e-02	7.262660e-02	7.262660e-02
0.000000e+00	7.360174e-11	7.360174e-11
...
0.000000e+00	-1.282324e-12	-1.282324e-12
7.561921e-03	-2.415240e-12	-2.415240e-12
0.000000e+00	2.372991e-12	2.372991e-12
1.420998e-02	5.816327e-13	5.816327e-13
0.000000e+00	1.141407e-12	1.141407e-12
2.398323e-02	3.157835e-13	3.157835e-13
0.000000e+00	-9.552845e-13	-9.552845e-13
3.466325e-02	-1.158145e-12	-1.158145e-12
0.000000e+00	2.016051e-13	2.016051e-13
4.190869e-02	3.536305e-12	3.536305e-12
3D FFT lmem=729
Scale =1.000000e+00
Data(in)	Data(out)	Data(scal)
0.000000e+00	0.000000e+00	0.000000e+00
0.000000e+00	0.000000e+00	0.000000e+00
0.000000e+00	0.000000e+00	0.000000e+00
0.000000e+00	0.000000e+00	0.000000e+00
0.000000e+00	0.000000e+00	0.000000e+00
0.000000e+00	0.000000e+00	0.000000e+00
0.000000e+00	0.000000e+00	0.000000e+00
0.000000e+00	0.000000e+00	0.000000e+00
0.000000e+00	0.000000e+00	0.000000e+00
0.000000e+00	0.000000e+00	0.000000e+00
...
0.000000e+00	0.000000e+00	0.000000e+00
0.000000e+00	0.000000e+00	0.000000e+00
0.000000e+00	0.000000e+00	0.000000e+00
0.000000e+00	0.000000e+00	0.000000e+00
0.000000e+00	0.000000e+00	0.000000e+00
0.000000e+00	0.000000e+00	0.000000e+00
0.000000e+00	0.000000e+00	0.000000e+00
0.000000e+00	0.000000e+00	0.000000e+00
0.000000e+00	0.000000e+00	0.000000e+00
0.000000e+00	0.000000e+00	0.000000e+00
3D FFT lmem=91125
Scale =1.000000e+00
Data(in)	Data(out)	Data(scal)
2.697484e-02	9.331314e-01	9.331314e-01
0.000000e+00	-7.063756e-28	-7.063756e-28
4.472112e-08	8.514381e-01	8.514381e-01
-1.454704e-14	-6.640124e-18	-6.640124e-18
1.255390e-02	6.489894e-01	6.489894e-01
-2.751229e-14	2.682957e-17	2.682957e-17
-4.982976e-10	4.176940e-01	4.176940e-01
-1.546642e-14	-3.117252e-17	-3.117252e-17
4.233858e-03	2.316680e-01	2.316680e-01
-6.221283e-15	5.361038e-17	5.361038e-17
...
8.525865e-18	8.978393e-18	8.978393e-18
5.489083e-18	1.124780e-01	1.124780e-01
-3.299578e-17	-2.926780e-17	-2.926780e-17
8.351150e-18	1.478254e-01	1.478254e-01
-1.551386e-17	-5.746857e-17	-5.746857e-17
-2.143145e-17	1.867657e-01	1.867657e-01
3.146962e-17	-1.219155e-17	-1.219155e-17
-4.526799e-17	2.216663e-01	2.216663e-01
2.327710e-17	-1.395270e-17	-1.395270e-17
-1.606868e-17	2.426864e-01	2.426864e-01

  outer SCF iter =    3 RMS gradient =   0.22E-07 energy =        -31.9356523442
  outer SCF loop converged in   3 iterations or   23 steps


 !-----------------------------------------------------------------------------!
                     Mulliken Population Analysis

 #  Atom  Element  Kind  Atomic population                           Net charge
       1     Li       1          2.277186                              0.722814
       2     Li       1          2.277221                              0.722779
       3     Li       1          2.277221                              0.722779
       4     Li       1          2.277221                              0.722779
       5     H        2          1.722794                             -0.722794
       6     H        2          1.722793                             -0.722793
       7     H        2          1.722793                             -0.722793
       8     H        2          1.722771                             -0.722771
 # Total charge                             16.000000                 -0.000000

 !-----------------------------------------------------------------------------!

 !-----------------------------------------------------------------------------!
                           Hirshfeld Charges

  #Atom  Element  Kind  Ref Charge     Population                    Net charge
      1       Li     1       3.000          3.410                        -0.410
      2       Li     1       3.000          3.410                        -0.410
      3       Li     1       3.000          3.410                        -0.410
      4       Li     1       3.000          3.410                        -0.410
      5       H      2       1.000          0.590                         0.410
      6       H      2       1.000          0.590                         0.410
      7       H      2       1.000          0.590                         0.410
      8       H      2       1.000          0.590                         0.410

  Total Charge                                                            0.000
 !-----------------------------------------------------------------------------!
                                            Tot. Ener.            S Cond. Numb.
      BASIS_MOLOPT_QUANTITIES -0.31935652344150022E+02  0.28717861797350462E+05

 ENERGY| Total FORCE_EVAL ( QS ) energy (a.u.):              -31.935652344150022


 -------------------------------------------------------------------------------
 -                                                                             -
 -                                DBCSR STATISTICS                             -
 -                                                                             -
 -------------------------------------------------------------------------------
 COUNTER                                    TOTAL       BLAS       SMM       ACC
 flops     8 x     8 x     8               109568     100.0%      0.0%      0.0%
 flops     8 x     8 x   300              2380800     100.0%      0.0%      0.0%
 flops   300 x     8 x     8              3264000     100.0%      0.0%      0.0%
 flops    32 x    32 x     8              3932160     100.0%      0.0%      0.0%
 flops    43 x    32 x     8              4227072     100.0%      0.0%      0.0%
 flops    32 x    43 x     8              4227072     100.0%      0.0%      0.0%
 flops    43 x    43 x     8              7100160     100.0%      0.0%      0.0%
 flops    32 x     8 x    32             14417920     100.0%      0.0%      0.0%
 flops    43 x     8 x    32             19374080     100.0%      0.0%      0.0%
 flops    32 x     8 x    43             19374080     100.0%      0.0%      0.0%
 flops    43 x     8 x    43             26033920     100.0%      0.0%      0.0%
 flops   300 x     8 x   300             43200000     100.0%      0.0%      0.0%
 flops inhomo. stacks                           0       0.0%      0.0%      0.0%
 flops total                       147.640832E+06     100.0%      0.0%      0.0%
 flops max/rank                    147.640832E+06     100.0%      0.0%      0.0%
 matmuls inhomo. stacks                         0       0.0%      0.0%      0.0%
 matmuls total                               4668     100.0%      0.0%      0.0%
 number of processed stacks                   600     100.0%      0.0%      0.0%
 average stack size                                     7.8       0.0       0.0
 marketing flops                   162.829568E+06
 -------------------------------------------------------------------------------
 # multiplications                            366
 max memory usage/rank             430.907392E+06
 # max total images/rank                        1
 # max 3D layers                                1
 # MPI messages exchanged                       0
 MPI messages size (bytes):
  total size                         0.000000E+00
  min size                           0.000000E+00
  max size                           0.000000E+00
  average size                       0.000000E+00
 MPI breakdown and total messages size (bytes):
             size <=      128                   0                        0
       128 < size <=     8192                   0                        0
      8192 < size <=    32768                   0                        0
     32768 < size <=   131072                   0                        0
    131072 < size <=  4194304                   0                        0
   4194304 < size <= 16777216                   0                        0
  16777216 < size                               0                        0
 -------------------------------------------------------------------------------
 -                                                                             -
 -                      DBCSR MESSAGE PASSING PERFORMANCE                      -
 -                                                                             -
 -------------------------------------------------------------------------------

 ROUTINE             CALLS      AVE VOLUME [Bytes]
 MP_Group               50
 MP_Bcast               13                     12.
 MP_Allreduce         1855                      8.
 MP_Alltoall          1712                  31615.
 MP_Wait              8784
 MP_ISend             1452                    233.
 MP_IRecv             1452                    233.
 MP_Memory           12546
 -------------------------------------------------------------------------------


 MEMORY| Estimated peak process memory [MiB]                                 412

 -------------------------------------------------------------------------------
 ----                             MULTIGRID INFO                            ----
 -------------------------------------------------------------------------------
 count for grid        1:          28421          cutoff [a.u.]          150.00
 count for grid        2:         111360          cutoff [a.u.]           50.00
 count for grid        3:          39412          cutoff [a.u.]           16.67
 count for grid        4:              8          cutoff [a.u.]            5.56
 total gridlevel count  :         179201

 -------------------------------------------------------------------------------
 -                                                                             -
 -                         MESSAGE PASSING PERFORMANCE                         -
 -                                                                             -
 -------------------------------------------------------------------------------

 ROUTINE             CALLS      AVE VOLUME [Bytes]
 MP_Group                4
 MP_Bcast              550                   9668.
 MP_Allreduce          943                   5653.
 MP_Sync                 4
 -------------------------------------------------------------------------------


 -------------------------------------------------------------------------------
 -                                                                             -
 -                           R E F E R E N C E S                               -
 -                                                                             -
 -------------------------------------------------------------------------------
 
 CP2K version 7.0 (Development Version), the CP2K developers group (2018).
 CP2K is freely available from https://www.cp2k.org/ .

 Schuett, Ole; Messmer, Peter; Hutter, Juerg; VandeVondele, Joost. 
 Electronic Structure Calculations on Graphics Processing Units, John Wiley & Sons, Ltd, 173-190 (2016). 
 GPU-Accelerated Sparse Matrix-Matrix Multiplication for Linear Scaling Density Functional Theory.
 https://dx.doi.org/10.1002/9781118670712.ch8


 Borstnik, U; VandeVondele, J; Weber, V; Hutter, J. 
 PARALLEL COMPUTING, 40 (5-6), 47-58 (2014). 
 Sparse matrix multiplication: The distributed block-compressed sparse
 row library.
 https://dx.doi.org/10.1016/j.parco.2014.03.012


 Hutter, J; Iannuzzi, M; Schiffmann, F; VandeVondele, J. 
 WILEY INTERDISCIPLINARY REVIEWS-COMPUTATIONAL MOLECULAR SCIENCE, 4 (1), 15-25 (2014). 
 CP2K: atomistic simulations of condensed matter systems.
 https://dx.doi.org/10.1002/wcms.1159


 Frigo, M; Johnson, SG. 
 PROCEEDINGS OF THE IEEE, 93 (2), 216-231 (2005). 
 The design and implementation of FFTW3.
 https://dx.doi.org/10.1109/JPROC.2004.840301


 VandeVondele, J; Hutter, J. 
 JOURNAL OF CHEMICAL PHYSICS, 118 (10), 4365-4369 (2003). 
 An efficient orbital transformation method for electronic structure
 calculations.
 https://dx.doi.org/10.1063/1.1543154


 Lippert, G; Hutter, J; Parrinello, M. 
 THEORETICAL CHEMISTRY ACCOUNTS, 103 (2), 124-140 (1999). 
 The Gaussian and augmented-plane-wave density functional method for ab
 initio molecular dynamics simulations.
 https://dx.doi.org/10.1007/s002140050523


 Krack, M; Parrinello, M. 
 PHYSICAL CHEMISTRY CHEMICAL PHYSICS, 2 (10), 2105-2112 (2000). 
 All-electron ab-initio molecular dynamics.
 https://dx.doi.org/10.1039/b001167n


 BECKE, AD. PHYSICAL REVIEW A, 38 (6), 3098-3100 (1988). 
 DENSITY-FUNCTIONAL EXCHANGE-ENERGY APPROXIMATION WITH CORRECT
 ASYMPTOTIC-BEHAVIOR.
 https://dx.doi.org/10.1103/PhysRevA.38.3098


 -------------------------------------------------------------------------------
 -                                                                             -
 -                                T I M I N G                                  -
 -                                                                             -
 -------------------------------------------------------------------------------
 SUBROUTINE                       CALLS  ASD         SELF TIME        TOTAL TIME
                                MAXIMUM       AVERAGE  MAXIMUM  AVERAGE  MAXIMUM
 CP2K                                 1  1.0    0.010    0.010   80.236   80.236
 qs_energies                          1  2.0    0.000    0.000   79.990   79.990
 scf_env_do_scf                       1  3.0    0.000    0.000   72.614   72.614
 scf_env_do_scf_inner_loop           23  4.0    0.001    0.001   65.082   65.082
 qs_ks_update_qs_env                 26  5.0    0.000    0.000   41.484   41.484
 rebuild_ks_matrix                   23  6.0    0.000    0.000   41.480   41.480
 qs_ks_build_kohn_sham_matrix        23  7.0    0.003    0.003   41.480   41.480
 qs_rho_update_rho                   24  5.0    0.000    0.000   32.551   32.551
 update_ks_atom                      23  8.0   22.123   22.123   22.123   22.123
 calculate_rho_elec                  24  6.0   19.297   19.297   19.724   19.724
 sum_up_and_integrate                12  8.0    0.001    0.001   16.009   16.009
 integrate_v_rspace                  12  9.0   15.958   15.958   16.008   16.008
 calculate_rho_atom_coeff            24  6.0   12.827   12.827   12.827   12.827
 init_scf_loop                        3  4.0    0.000    0.000    7.531    7.531
 qs_energies_init_hamiltonians        1  3.0    0.000    0.000    5.650    5.650
 build_core_hamiltonian_matrix        1  4.0    0.000    0.000    5.487    5.487
 build_core_ae                        1  5.0    4.873    4.873    4.873    4.873
 init_scf_run                         1  3.0    0.000    0.000    1.698    1.698
 scf_env_initial_rho_setup            1  4.0    0.000    0.000    1.698    1.698
 -------------------------------------------------------------------------------

 The number of warnings for this run is : 0
 
 -------------------------------------------------------------------------------
  **** **** ******  **  PROGRAM ENDED AT                 2019-04-18 09:15:57.381
 ***** ** ***  *** **   PROGRAM RAN ON                                      gpu1
 **    ****   ******    PROGRAM RAN BY                                    sghpc3
 ***** **    ** ** **   PROGRAM PROCESS ID                                343450
  **** **  *******  **  PROGRAM STOPPED IN   /public/sugon_home/sghpc3/test/cp2k

real	1m21.356s
user	1m19.772s
sys	0m1.385s
