nohup: ignoring input
--------------------------------------------------------------------------
WARNING: No preset parameters were found for the device that Open MPI
detected:

  Local host:            r4-node4
  Device name:           mlx5_3
  Device vendor ID:      0x02c9
  Device vendor part ID: 4123

Default device parameters will be used, which may result in lower
performance.  You can edit any of the files specified by the
btl_openib_device_param_files MCA parameter to set values for your
device.

NOTE: You can turn off this warning by setting the MCA parameter
      btl_openib_warn_no_device_params_found to 0.
--------------------------------------------------------------------------
--------------------------------------------------------------------------
WARNING: There are more than one active ports on host 'r4-node4', but the
default subnet GID prefix was detected on more than one of these
ports.  If these ports are connected to different physical IB
networks, this configuration will fail in Open MPI.  This version of
Open MPI requires that every physically separate IB subnet that is
used between connected MPI processes must have different subnet ID
values.

Please see this FAQ entry for more details:

  http://www.open-mpi.org/faq/?category=openfabrics#ofa-default-subnet-gid

NOTE: You can turn off this warning by setting the MCA parameter
      btl_openib_warn_default_gid_prefix to 0.
--------------------------------------------------------------------------
[1555403384.403511] [r4-node4:89154:0]        dc_mlx5.c:603  UCX  ERROR error modifying QP to RTR: Invalid argument
[1555403384.405209] [r4-node4:89154:0]     ucp_worker.c:1105 UCX  WARN  failed to remove event handler for fd -1: No such element
[1555403384.405274] [r4-node4:89154:0]     ucp_worker.c:1105 UCX  WARN  failed to remove event handler for fd -1: No such element
[1555403384.405714] [r4-node4:89154:0]     ucp_worker.c:1105 UCX  WARN  failed to remove event handler for fd -1: No such element
[r4-node4:89154] pml_ucx.c:208 Error: Failed to create UCP worker
[r4-node4][[36195,1],0][connect/btl_openib_connect_udcm.c:1245:udcm_rc_qp_to_rtr] error modifing QP to RTR errno says Invalid argument
[r4-node4][[36195,1],0][connect/btl_openib_connect_udcm.c:1245:udcm_rc_qp_to_rtr] error modifing QP to RTR errno says Invalid argument
[r4-node4][[36195,1],0][connect/btl_openib_connect_udcm.c:1245:udcm_rc_qp_to_rtr] error modifing QP to RTR errno says Invalid argument
 DBCSR| CPU Multiplication driver                                           BLAS
 DBCSR| Multrec recursion limit                                              512
 DBCSR| Multiplication stack size                                           1000
 DBCSR| Maximum elements for images                                    UNLIMITED
 DBCSR| Multiplicative factor virtual images                                   1
 DBCSR| Use multiplication densification                                       T
 DBCSR| Multiplication size stacks                                             3
 DBCSR| Number of 3D layers                                               SINGLE
 DBCSR| Use MPI memory allocation                                              T
 DBCSR| Use RMA algorithm                                                      F
 DBCSR| Use Communication thread                                               T
 DBCSR| Communication thread load                                             87


  **** **** ******  **  PROGRAM STARTED AT               2019-04-16 16:29:44.318
 ***** ** ***  *** **   PROGRAM STARTED ON                              r4-node4
 **    ****   ******    PROGRAM STARTED BY                                 xiexg
 ***** **    ** ** **   PROGRAM PROCESS ID                                 89154
  **** **  *******  **  PROGRAM STARTED IN /home/xiexg/cp2k/tests/QS/benchmark_H
                                           FX/LiH_2

 CP2K| version string:                    CP2K version 7.0 (Development Version)
 CP2K| source code revision number:                                  git:ccba1ca
 CP2K| cp2kflags: fftw3 parallel mpi3 scalapack acc pw_hip mkl                  
 CP2K| is freely available from                            https://www.cp2k.org/
 CP2K| Program compiled at                          Sat Mar 16 13:02:20 CST 2019
 CP2K| Program compiled on                                              r4-node4
 CP2K| Program compiled for                        Linux-x86-64-hip-gfortran-mkl
 CP2K| Data directory path                                 /home/xiexg/cp2k/data
 CP2K| Input file name                                      input_bulk_B88_3.inp

 GLOBAL| Force Environment number                                              1
 GLOBAL| Basis set file name                                         ./BASIS_OPT
 GLOBAL| Potential file name                                         ./POTENTIAL
 GLOBAL| MM Potential file name                                     MM_POTENTIAL
 GLOBAL| Coordinate file name                                      __STD_INPUT__
 GLOBAL| Method name                                                        CP2K
 GLOBAL| Project name                                                 LiH_bulk_3
 GLOBAL| Preferred FFT library                                             FFTW3
 GLOBAL| Preferred diagonalization lib.                                       SL
 GLOBAL| Run type                                                         ENERGY
 GLOBAL| All-to-all communication in single precision                          F
 GLOBAL| FFTs using library dependent lengths                                  F
 GLOBAL| Global print level                                               MEDIUM
 GLOBAL| MPI I/O enabled                                                       T
 GLOBAL| Total number of message passing processes                             1
 GLOBAL| Number of threads for this process                                    1
 GLOBAL| This output is from process                                           0
 GLOBAL| CPU model name :  Hygon C86 7185 32-core Processor

 MEMORY| system memory details [Kb]
 MEMORY|                        rank 0           min           max       average
 MEMORY| MemTotal            129567612     129567612     129567612     129567612
 MEMORY| MemFree              83748872      83748872      83748872      83748872
 MEMORY| Buffers                431140        431140        431140        431140
 MEMORY| Cached               37196372      37196372      37196372      37196372
 MEMORY| Slab                   858876        858876        858876        858876
 MEMORY| SReclaimable           692992        692992        692992        692992
 MEMORY| MemLikelyFree       122069376     122069376     122069376     122069376


 *** Fundamental physical constants (SI units) ***

 *** Literature: B. J. Mohr and B. N. Taylor,
 ***             CODATA recommended values of the fundamental physical
 ***             constants: 2006, Web Version 5.1
 ***             http://physics.nist.gov/constants

 Speed of light in vacuum [m/s]                             2.99792458000000E+08
 Magnetic constant or permeability of vacuum [N/A**2]       1.25663706143592E-06
 Electric constant or permittivity of vacuum [F/m]          8.85418781762039E-12
 Planck constant (h) [J*s]                                  6.62606896000000E-34
 Planck constant (h-bar) [J*s]                              1.05457162825177E-34
 Elementary charge [C]                                      1.60217648700000E-19
 Electron mass [kg]                                         9.10938215000000E-31
 Electron g factor [ ]                                     -2.00231930436220E+00
 Proton mass [kg]                                           1.67262163700000E-27
 Fine-structure constant                                    7.29735253760000E-03
 Rydberg constant [1/m]                                     1.09737315685270E+07
 Avogadro constant [1/mol]                                  6.02214179000000E+23
 Boltzmann constant [J/K]                                   1.38065040000000E-23
 Atomic mass unit [kg]                                      1.66053878200000E-27
 Bohr radius [m]                                            5.29177208590000E-11

 *** Conversion factors ***

 [u] -> [a.u.]                                              1.82288848426455E+03
 [Angstrom] -> [Bohr] = [a.u.]                              1.88972613288564E+00
 [a.u.] = [Bohr] -> [Angstrom]                              5.29177208590000E-01
 [a.u.] -> [s]                                              2.41888432650478E-17
 [a.u.] -> [fs]                                             2.41888432650478E-02
 [a.u.] -> [J]                                              4.35974393937059E-18
 [a.u.] -> [N]                                              8.23872205491840E-08
 [a.u.] -> [K]                                              3.15774647902944E+05
 [a.u.] -> [kJ/mol]                                         2.62549961709828E+03
 [a.u.] -> [kcal/mol]                                       6.27509468713739E+02
 [a.u.] -> [Pa]                                             2.94210107994716E+13
 [a.u.] -> [bar]                                            2.94210107994716E+08
 [a.u.] -> [atm]                                            2.90362800883016E+08
 [a.u.] -> [eV]                                             2.72113838565563E+01
 [a.u.] -> [Hz]                                             6.57968392072181E+15
 [a.u.] -> [1/cm] (wave numbers)                            2.19474631370540E+05
 [a.u./Bohr**2] -> [1/cm]                                   5.14048714338585E+03
 

 CELL_TOP| Volume [angstrom^3]:                                           68.117
 CELL_TOP| Vector a [angstrom     4.084     0.000     0.000    |a| =       4.084
 CELL_TOP| Vector b [angstrom     0.000     4.084     0.000    |b| =       4.084
 CELL_TOP| Vector c [angstrom     0.000     0.000     4.084    |c| =       4.084
 CELL_TOP| Angle (b,c), alpha [degree]:                                   90.000
 CELL_TOP| Angle (a,c), beta  [degree]:                                   90.000
 CELL_TOP| Angle (a,b), gamma [degree]:                                   90.000
 CELL_TOP| Numerically orthorhombic:                                         YES

 GENERATE|  Preliminary Number of Bonds generated:                             0
 GENERATE|  Achieved consistency in connectivity generation.

 CELL| Volume [angstrom^3]:                                               68.117
 CELL| Vector a [angstrom]:       4.084     0.000     0.000    |a| =       4.084
 CELL| Vector b [angstrom]:       0.000     4.084     0.000    |b| =       4.084
 CELL| Vector c [angstrom]:       0.000     0.000     4.084    |c| =       4.084
 CELL| Angle (b,c), alpha [degree]:                                       90.000
 CELL| Angle (a,c), beta  [degree]:                                       90.000
 CELL| Angle (a,b), gamma [degree]:                                       90.000
 CELL| Numerically orthorhombic:                                             YES

 CELL_REF| Volume [angstrom^3]:                                           68.117
 CELL_REF| Vector a [angstrom     4.084     0.000     0.000    |a| =       4.084
 CELL_REF| Vector b [angstrom     0.000     4.084     0.000    |b| =       4.084
 CELL_REF| Vector c [angstrom     0.000     0.000     4.084    |c| =       4.084
 CELL_REF| Angle (b,c), alpha [degree]:                                   90.000
 CELL_REF| Angle (a,c), beta  [degree]:                                   90.000
 CELL_REF| Angle (a,b), gamma [degree]:                                   90.000
 CELL_REF| Numerically orthorhombic:                                         YES

 *******************************************************************************
 *******************************************************************************
 **                                                                           **
 **     #####                         ##              ##                      **
 **    ##   ##            ##          ##              ##                      **
 **   ##     ##                       ##            ######                    **
 **   ##     ##  ##   ##  ##   #####  ##  ##   ####   ##    #####    #####    **
 **   ##     ##  ##   ##  ##  ##      ## ##   ##      ##   ##   ##  ##   ##   **
 **   ##  ## ##  ##   ##  ##  ##      ####     ###    ##   ######   ######    **
 **    ##  ###   ##   ##  ##  ##      ## ##      ##   ##   ##       ##        **
 **     #######   #####   ##   #####  ##  ##  ####    ##    #####   ##        **
 **           ##                                                    ##        **
 **                                                                           **
 **                                                ... make the atoms dance   **
 **                                                                           **
 **            Copyright (C) by CP2K developers group (2000 - 2018)           **
 **                                                                           **
 *******************************************************************************

 DFT| Spin restricted Kohn-Sham (RKS) calculation                            RKS
 DFT| Multiplicity                                                             1
 DFT| Number of spin states                                                    1
 DFT| Charge                                                                   0
 DFT| Self-interaction correction (SIC)                                       NO
 DFT| Cutoffs: density                                              1.000000E-10
 DFT|          gradient                                             1.000000E-10
 DFT|          tau                                                  1.000000E-10
 DFT|          cutoff_smoothing_range                               0.000000E+00
 DFT| XC density smoothing                                                  NONE
 DFT| XC derivatives                                                          PW
 FUNCTIONAL| ROUTINE=NEW
 FUNCTIONAL| BECKE88:
 FUNCTIONAL| A. Becke, Phys. Rev. A 38, 3098 (1988) {LDA version}               

 QS| Method:                                                                GAPW
 QS| Density plane wave grid type                        NON-SPHERICAL FULLSPACE
 QS| Number of grid levels:                                                    4
 QS| Density cutoff [a.u.]:                                                150.0
 QS| Multi grid cutoff [a.u.]: 1) grid level                               150.0
 QS|                           2) grid level                                50.0
 QS|                           3) grid level                                16.7
 QS|                           4) grid level                                 5.6
 QS| Grid level progression factor:                                          3.0
 QS| Relative density cutoff [a.u.]:                                        25.0
 QS| Consistent realspace mapping and integration 
 QS| Interaction thresholds: eps_pgf_orb:                                1.0E-16
 QS|                         eps_filter_matrix:                          0.0E+00
 QS|                         eps_core_charge:                            1.0E-14
 QS|                         eps_rho_gspace:                             1.0E-12
 QS|                         eps_rho_rspace:                             1.0E-12
 QS|                         eps_gvg_rspace:                             1.0E-06
 QS|                         eps_ppl:                                    1.0E-02
 QS|                         eps_ppnl:                                   1.0E-08
 QS| GAPW|                   eps_fit:                                    1.0E-04
 QS| GAPW|                   eps_iso:                                    1.0E-12
 QS| GAPW|                   eps_svd:                                    1.0E-08
 QS| GAPW|                   eps_cpc:                                    1.0E-12
 QS| GAPW|   atom-r-grid: quadrature:                 GC_LOG                        
 QS| GAPW|      atom-s-grid:  max l :                                          6
 QS| GAPW|      max_l_rho0 :                                                   2


 ATOMIC KIND INFORMATION

  1. Atomic kind: Li                                    Number of atoms:       4

     Orbital Basis Set                                                      OPT2

       Number of orbital shell sets:                                          19
       Number of orbital shells:                                              19
       Number of primitive Cartesian functions:                               22
       Number of Cartesian basis functions:                                   48
       Number of spherical basis functions:                                   43
       Norm type:                                                              2

       Normalised Cartesian orbitals:

                        Set   Shell   Orbital            Exponent    Coefficient

                          1       1    1s             1336.034059     157.497346

                          2       1    1s              444.299817      68.971106

                          3       1    1s              147.797018      30.210600

                          4       1    1s               49.209451      13.241784

                          5       1    1s               16.428957       5.815909

                          6       1    1s                5.529399       2.569914

                          7       1    1s                1.905282       1.155792

                          8       1    1s                0.700259       0.545574

                          9       1    1s                0.299587       0.288604

                         10       1    1s                0.166363       0.185653

                         11       1    1px               1.570911       2.506857
                         11       1    1py               1.570911       2.506857
                         11       1    1pz               1.570911       2.506857

                         12       1    1px               0.748759       0.992813
                         12       1    1py               0.748759       0.992813
                         12       1    1pz               0.748759       0.992813

                         13       1    1px               0.386141       0.433883
                         13       1    1py               0.386141       0.433883
                         13       1    1pz               0.386141       0.433883

                         14       1    1px               0.226205       0.222366
                         14       1    1py               0.226205       0.222366
                         14       1    1pz               0.226205       0.222366

                         15       1    1dx2              0.779208       1.063661
                         15       1    1dxy              0.779208       1.842314
                         15       1    1dxz              0.779208       1.842314
                         15       1    1dy2              0.779208       1.063661
                         15       1    1dyz              0.779208       1.842314
                         15       1    1dz2              0.779208       1.063661

                         16       1    1dx2              0.407899       0.342671
                         16       1    1dxy              0.407899       0.593523
                         16       1    1dxz              0.407899       0.593523
                         16       1    1dy2              0.407899       0.342671
                         16       1    1dyz              0.407899       0.593523
                         16       1    1dz2              0.407899       0.342671

                         17       1    1fx3              0.737063       0.741037
                         17       1    1fx2y             0.737063       1.657009
                         17       1    1fx2z             0.737063       1.657009
                         17       1    1fxy2             0.737063       1.657009
                         17       1    1fxyz             0.737063       2.870024
                         17       1    1fxz2             0.737063       1.657009
                         17       1    1fy3              0.737063       0.741037
                         17       1    1fy2z             0.737063       1.657009
                         17       1    1fyz2             0.737063       1.657009
                         17       1    1fz3              0.737063       0.741037

                         18       1    1s            70681.000000      77.181651
                                                     13594.000000     137.129824
                                                      3100.400000     260.757508

                         19       1    1px              28.500000      10.037838
                                                         6.640000      14.250477
                         19       1    1py              28.500000      10.037838
                                                         6.640000      14.250477
                         19       1    1pz              28.500000      10.037838
                                                         6.640000      14.250477

     The atoms of this atomic kind are PAW atoms (GAPW):
       Hard Gaussian function radius:                                      1.512
       Rho0 radius:                                                        1.512
       Maximum GTO radius used for PAW projector construction:            24.566

     GAPW Soft Basis Set                                               OPT2_soft

       Number of orbital shell sets:                                          19
       Number of orbital shells:                                              19
       Number of primitive Cartesian functions:                               11
       Number of Cartesian basis functions:                                   48
       Number of spherical basis functions:                                   43
       Norm type:                                                              2

       Normalised Cartesian orbitals:

                        Set   Shell   Orbital            Exponent    Coefficient

                          1       1    1s         

                          2       1    1s         

                          3       1    1s         

                          4       1    1s         

                          5       1    1s         

                          6       1    1s         

                          7       1    1s                1.905282       1.155792

                          8       1    1s                0.700259       0.545574

                          9       1    1s                0.299587       0.288604

                         10       1    1s                0.166363       0.185653

                         11       1    1px               1.570911       2.506857
                         11       1    1py               1.570911       2.506857
                         11       1    1pz               1.570911       2.506857

                         12       1    1px               0.748759       0.992813
                         12       1    1py               0.748759       0.992813
                         12       1    1pz               0.748759       0.992813

                         13       1    1px               0.386141       0.433883
                         13       1    1py               0.386141       0.433883
                         13       1    1pz               0.386141       0.433883

                         14       1    1px               0.226205       0.222366
                         14       1    1py               0.226205       0.222366
                         14       1    1pz               0.226205       0.222366

                         15       1    1dx2              0.779208       1.063661
                         15       1    1dxy              0.779208       1.842314
                         15       1    1dxz              0.779208       1.842314
                         15       1    1dy2              0.779208       1.063661
                         15       1    1dyz              0.779208       1.842314
                         15       1    1dz2              0.779208       1.063661

                         16       1    1dx2              0.407899       0.342671
                         16       1    1dxy              0.407899       0.593523
                         16       1    1dxz              0.407899       0.593523
                         16       1    1dy2              0.407899       0.342671
                         16       1    1dyz              0.407899       0.593523
                         16       1    1dz2              0.407899       0.342671

                         17       1    1fx3              0.737063       0.741037
                         17       1    1fx2y             0.737063       1.657009
                         17       1    1fx2z             0.737063       1.657009
                         17       1    1fxy2             0.737063       1.657009
                         17       1    1fxyz             0.737063       2.870024
                         17       1    1fxz2             0.737063       1.657009
                         17       1    1fy3              0.737063       0.741037
                         17       1    1fy2z             0.737063       1.657009
                         17       1    1fyz2             0.737063       1.657009
                         17       1    1fz3              0.737063       0.741037

                         18       1    1s         

                         19       1    1px        
                         19       1    1py        
                         19       1    1pz        

     AE Potential information for                                            ALL

       Description:                                       All-electron potential
                                          Krack, Parrinello, PCCP 2, 2105 (2000)

       Gaussian exponent of the core charge distribution:               3.125000
       Electronic configuration (s p d ...):                           3   0   0

  2. Atomic kind: H                                     Number of atoms:       4

     Orbital Basis Set                                                      OPT2

       Number of orbital shell sets:                                          12
       Number of orbital shells:                                              12
       Number of primitive Cartesian functions:                               14
       Number of Cartesian basis functions:                                   37
       Number of spherical basis functions:                                   32
       Norm type:                                                              2

       Normalised Cartesian orbitals:

                        Set   Shell   Orbital            Exponent    Coefficient

                          1       1    1s               27.463675       8.550255

                          2       1    1s                6.855926       3.019671

                          3       1    1s                1.767997       1.092751

                          4       1    1s                0.511818       0.431268

                          5       1    1s                0.201675       0.214486

                          6       1    1px               2.124086       3.655151
                          6       1    1py               2.124086       3.655151
                          6       1    1pz               2.124086       3.655151

                          7       1    1px               1.073681       1.557881
                          7       1    1py               1.073681       1.557881
                          7       1    1pz               1.073681       1.557881

                          8       1    1px               0.568387       0.703469
                          8       1    1py               0.568387       0.703469
                          8       1    1pz               0.568387       0.703469

                          9       1    1dx2              0.928338       1.445092
                          9       1    1dxy              0.928338       2.502973
                          9       1    1dxz              0.928338       2.502973
                          9       1    1dy2              0.928338       1.445092
                          9       1    1dyz              0.928338       2.502973
                          9       1    1dz2              0.928338       1.445092

                         10       1    1dx2              0.495830       0.482216
                         10       1    1dxy              0.495830       0.835223
                         10       1    1dxz              0.495830       0.835223
                         10       1    1dy2              0.495830       0.482216
                         10       1    1dyz              0.495830       0.835223
                         10       1    1dz2              0.495830       0.482216

                         11       1    1fx3              1.207348       2.249456
                         11       1    1fx2y             1.207348       5.029937
                         11       1    1fx2z             1.207348       5.029937
                         11       1    1fxy2             1.207348       5.029937
                         11       1    1fxyz             1.207348       8.712106
                         11       1    1fxz2             1.207348       5.029937
                         11       1    1fy3              1.207348       2.249456
                         11       1    1fy2z             1.207348       5.029937
                         11       1    1fyz2             1.207348       5.029937
                         11       1    1fz3              1.207348       2.249456

                         12       1    1s             3079.700000       6.291525
                                                       461.520000      11.778577
                                                       105.060000      20.410428

     The atoms of this atomic kind are PAW atoms (GAPW):
       Hard Gaussian function radius:                                      1.200
       Rho0 radius:                                                        1.200
       Maximum GTO radius used for PAW projector construction:            24.566

     GAPW Soft Basis Set                                               OPT2_soft

       Number of orbital shell sets:                                          12
       Number of orbital shells:                                              12
       Number of primitive Cartesian functions:                                9
       Number of Cartesian basis functions:                                   37
       Number of spherical basis functions:                                   32
       Norm type:                                                              2

       Normalised Cartesian orbitals:

                        Set   Shell   Orbital            Exponent    Coefficient

                          1       1    1s         

                          2       1    1s         

                          3       1    1s                1.767997       1.092751

                          4       1    1s                0.511818       0.431268

                          5       1    1s                0.201675       0.214486

                          6       1    1px               2.124086       3.655151
                          6       1    1py               2.124086       3.655151
                          6       1    1pz               2.124086       3.655151

                          7       1    1px               1.073681       1.557881
                          7       1    1py               1.073681       1.557881
                          7       1    1pz               1.073681       1.557881

                          8       1    1px               0.568387       0.703469
                          8       1    1py               0.568387       0.703469
                          8       1    1pz               0.568387       0.703469

                          9       1    1dx2              0.928338       1.445092
                          9       1    1dxy              0.928338       2.502973
                          9       1    1dxz              0.928338       2.502973
                          9       1    1dy2              0.928338       1.445092
                          9       1    1dyz              0.928338       2.502973
                          9       1    1dz2              0.928338       1.445092

                         10       1    1dx2              0.495830       0.482216
                         10       1    1dxy              0.495830       0.835223
                         10       1    1dxz              0.495830       0.835223
                         10       1    1dy2              0.495830       0.482216
                         10       1    1dyz              0.495830       0.835223
                         10       1    1dz2              0.495830       0.482216

                         11       1    1fx3              1.207348       2.249456
                         11       1    1fx2y             1.207348       5.029937
                         11       1    1fx2z             1.207348       5.029937
                         11       1    1fxy2             1.207348       5.029937
                         11       1    1fxyz             1.207348       8.712106
                         11       1    1fxz2             1.207348       5.029937
                         11       1    1fy3              1.207348       2.249456
                         11       1    1fy2z             1.207348       5.029937
                         11       1    1fyz2             1.207348       5.029937
                         11       1    1fz3              1.207348       2.249456

                         12       1    1s         

     AE Potential information for                                            ALL

       Description:                                       All-electron potential
                                          Krack, Parrinello, PCCP 2, 2105 (2000)

       Gaussian exponent of the core charge distribution:              12.500000
       Electronic configuration (s p d ...):                           1   0   0


 MOLECULE KIND INFORMATION


 All atoms are their own molecule, skipping detailed information


 TOTAL NUMBERS AND MAXIMUM NUMBERS

  Total number of            - Atomic kinds:                                   2
                             - Atoms:                                          8
                             - Shell sets:                                   124
                             - Shells:                                       124
                             - Primitive Cartesian functions:                144
                             - Cartesian basis functions:                    340
                             - Spherical basis functions:                    300

  Maximum angular momentum of the orbital basis functions:                     3


 MODULE QUICKSTEP:  ATOMIC COORDINATES IN angstrom

  Atom  Kind  Element       X           Y           Z          Z(eff)       Mass

       1     1 Li   3    0.000000    0.000000    0.000000      3.00       6.9410
       2     1 Li   3    2.042000    2.042000    0.000000      3.00       6.9410
       3     1 Li   3    2.042000    0.000000    2.042000      3.00       6.9410
       4     1 Li   3    0.000000    2.042000    2.042000      3.00       6.9410
       5     2 H    1    0.000000    2.042000    0.000000      1.00       1.0079
       6     2 H    1    2.042000    0.000000    0.000000      1.00       1.0079
       7     2 H    1    0.000000    0.000000    2.042000      1.00       1.0079
       8     2 H    1    2.042000    2.042000    2.042000      1.00       1.0079




 SCF PARAMETERS         Density guess:                                    ATOMIC
                        --------------------------------------------------------
                        max_scf:                                              10
                        max_scf_history:                                       0
                        max_diis:                                              4
                        --------------------------------------------------------
                        eps_scf:                                        1.00E-07
                        eps_scf_history:                                0.00E+00
                        eps_diis:                                       1.00E-01
                        eps_eigval:                                     1.00E-05
                        --------------------------------------------------------
                        level_shift [a.u.]:                                 0.00
                        --------------------------------------------------------
                        Outer loop SCF in use 
                        No variables optimised in outer loop
                        eps_scf                                         1.00E-07
                        max_scf                                               10
                        No outer loop optimization
                        step_size                                       5.00E-01

 PW_GRID| Information for grid number                                          1
 PW_GRID| Cutoff [a.u.]                                                    150.0
 PW_GRID| spherical cutoff:                                                   NO
 PW_GRID|   Bounds   1            -22      22                Points:          45
 PW_GRID|   Bounds   2            -22      22                Points:          45
 PW_GRID|   Bounds   3            -22      22                Points:          45
 PW_GRID| Volume element (a.u.^3)  0.5044E-02     Volume (a.u.^3)       459.6781
 PW_GRID| Grid span                                                    FULLSPACE

 PW_GRID| Information for grid number                                          2
 PW_GRID| Cutoff [a.u.]                                                     50.0
 PW_GRID| spherical cutoff:                                                   NO
 PW_GRID|   Bounds   1            -12      12                Points:          25
 PW_GRID|   Bounds   2            -12      12                Points:          25
 PW_GRID|   Bounds   3            -12      12                Points:          25
 PW_GRID| Volume element (a.u.^3)  0.2942E-01     Volume (a.u.^3)       459.6781
 PW_GRID| Grid span                                                    FULLSPACE

 PW_GRID| Information for grid number                                          3
 PW_GRID| Cutoff [a.u.]                                                     16.7
 PW_GRID| spherical cutoff:                                                   NO
 PW_GRID|   Bounds   1             -7       7                Points:          15
 PW_GRID|   Bounds   2             -7       7                Points:          15
 PW_GRID|   Bounds   3             -7       7                Points:          15
 PW_GRID| Volume element (a.u.^3)  0.1362         Volume (a.u.^3)       459.6781
 PW_GRID| Grid span                                                    FULLSPACE

 PW_GRID| Information for grid number                                          4
 PW_GRID| Cutoff [a.u.]                                                      5.6
 PW_GRID| spherical cutoff:                                                   NO
 PW_GRID|   Bounds   1             -4       4                Points:           9
 PW_GRID|   Bounds   2             -4       4                Points:           9
 PW_GRID|   Bounds   3             -4       4                Points:           9
 PW_GRID| Volume element (a.u.^3)  0.6306         Volume (a.u.^3)       459.6781
 PW_GRID| Grid span                                                    FULLSPACE

 POISSON| Solver                                                        PERIODIC
 POISSON| Periodicity                                                        XYZ

 RS_GRID| Information for grid number                                          1
 RS_GRID|   Bounds   1            -22      22                Points:          45
 RS_GRID|   Bounds   2            -22      22                Points:          45
 RS_GRID|   Bounds   3            -22      22                Points:          45

 RS_GRID| Information for grid number                                          2
 RS_GRID|   Bounds   1            -12      12                Points:          25
 RS_GRID|   Bounds   2            -12      12                Points:          25
 RS_GRID|   Bounds   3            -12      12                Points:          25

 RS_GRID| Information for grid number                                          3
 RS_GRID|   Bounds   1             -7       7                Points:          15
 RS_GRID|   Bounds   2             -7       7                Points:          15
 RS_GRID|   Bounds   3             -7       7                Points:          15

 RS_GRID| Information for grid number                                          4
 RS_GRID|   Bounds   1             -4       4                Points:           9
 RS_GRID|   Bounds   2             -4       4                Points:           9
 RS_GRID|   Bounds   3             -4       4                Points:           9
[r4-node4:89147] 3 more processes have sent help message help-mpi-btl-openib.txt / no device params found
[r4-node4:89147] Set MCA parameter "orte_base_help_aggregate" to 0 to see all help / error messages
[r4-node4:89147] 2 more processes have sent help message help-mpi-btl-openib.txt / default subnet prefix

 Number of electrons:                                                         16
 Number of occupied orbitals:                                                  8
 Number of molecular orbitals:                                                 8

 Number of orbital functions:                                                300
 Number of independent orbital functions:                                    300

 Extrapolation method: initial_guess

 Atomic guess: The first density matrix is obtained in terms of atomic orbitals
               and electronic configurations assigned to each atomic kind

 Guess for atomic kind: Li

 Electronic structure
    Total number of core electrons                                          0.00
    Total number of valence electrons                                       3.00
    Total number of electrons                                               3.00
    Multiplicity                                                   not specified
    S      2.00  1.00


 *******************************************************************************
                  Iteration          Convergence                     Energy [au]
 *******************************************************************************
                          1        0.366375E-01                  -7.265968330823
                          2        0.734994E-02                  -7.266277877733
                          3        0.252958E-03                  -7.266291245037
                          4        0.138485E-04                  -7.266291275674
                          5        0.182507E-06                  -7.266291275739

 Energy components [Hartree]           Total Energy ::           -7.266291275739
                                        Band Energy ::           -3.545728607409
                                     Kinetic Energy ::            7.483729362652
                                   Potential Energy ::          -14.750020638391
                                      Virial (-V/T) ::            1.970945223113
                                        Core Energy ::           -9.811586285906
                                          XC Energy ::           -1.712415239295
                                     Coulomb Energy ::            4.257710249463

 Orbital energies  State     L     Occupation   Energy[a.u.]          Energy[eV]

                       1     0          2.000      -1.773616          -48.262548
                       2     0          1.000       0.001504            0.040914


 Total Electron Density at R=0:                                        13.567689

 Guess for atomic kind: H

 Electronic structure
    Total number of core electrons                                          0.00
    Total number of valence electrons                                       1.00
    Total number of electrons                                               1.00
    Multiplicity                                                   not specified
    S      1.00


 *******************************************************************************
                  Iteration          Convergence                     Energy [au]
 *******************************************************************************
                          1        0.266540E-02                  -0.434975734540
                          2        0.109094E-03                  -0.434979741978
                          3        0.115125E-04                  -0.434979773841
                          4        0.163056E-07                  -0.434979774030

 Energy components [Hartree]           Total Energy ::           -0.434979774030
                                        Band Energy ::           -0.202665576855
                                     Kinetic Energy ::            0.481600404909
                                   Potential Energy ::           -0.916580178939
                                      Virial (-V/T) ::            1.903196445844
                                        Core Energy ::           -0.492590153463
                                          XC Energy ::           -0.250850993229
                                     Coulomb Energy ::            0.308461372661

 Orbital energies  State     L     Occupation   Energy[a.u.]          Energy[eV]

                       1     0          1.000      -0.202666           -5.514811


 Total Electron Density at R=0:                                         0.289404
 Re-scaling the density matrix to get the right number of electrons
                  # Electrons              Trace(P)               Scaling factor
                           16                16.694                        0.958
FFT 3D (45-45-45)
FFT 3D (25-25-25)
FFT 3D (15-15-15)
FFT 3D (9-9-9)


 SCF WAVEFUNCTION OPTIMIZATION

  ----------------------------------- OT ---------------------------------------
  Minimizer      : CG                  : conjugate gradient
  Preconditioner : FULL_ALL            : diagonalization, state selective
  Precond_solver : DEFAULT
  Line search    : 2PNT                : 2 energies, one gradient
  stepsize       :    0.15000000                  energy_gap     :    0.08000000
  eps_taylor     :   0.10000E-15                  max_taylor     :             4
  ----------------------------------- OT ---------------------------------------

  Step     Update method      Time    Convergence         Total energy    Change
  ------------------------------------------------------------------------------
     1 OT CG       0.15E+00    4.7     0.16125080       272.5184833061  2.73E+02
     2 OT LS       0.15E-02    6.3                      927.2410142543
     3 OT CG       0.15E-02    7.8     0.16123654       274.7249728756  2.21E+00
     4 OT LS       0.29E-04    6.3                      277.0201745211
     5 OT CG       0.29E-04    7.8     0.16123620       274.7690333217  4.41E-02
     6 OT LS       0.59E-06    6.3                      274.8131278000
     7 OT CG       0.59E-06    7.8     0.16123619       274.7699130597  8.80E-04
     8 OT LS       0.12E-07    6.3                      274.7707928111
     9 OT CG       0.12E-07    7.8     0.16123619       274.7699306251  1.76E-05
    10 OT LS       0.23E-09    6.3                      274.7699481906

  Leaving inner SCF loop after reaching    10 steps.


  Electronic density on regular grids:         -3.4561107221       12.5438892779
  Core density on regular grids:               16.0000000000       -0.0000000000
  Hard and soft densities (Lebedev):          -22.1195610924      -18.7432408785
  Total Rho_soft + Rho1_hard - Rho1_soft       -6.8324309361
  Total charge density (r-space):               9.1675690639
  Total Rho_soft + Rho0_soft (g-space):         0.0000020509

  Overlap energy of the core charge distribution:               0.00000000000000
  Self energy of the core charge distribution:                -31.03042709512659
  Core Hamiltonian energy:                                      4.90660386830554
  Hartree energy:                                             313.16730566665046
  Exchange-correlation energy:                                 -0.50005447505071

  GAPW| Exc from hard and soft atomic rho1:                    -4.06677321879064
  GAPW| local Eh = 1 center integrals:                         -7.70670655540929

  Total energy:                                               274.76994819057870

  outer SCF iter =    1 RMS gradient =   0.16E+00 energy =        274.7699481906

  ----------------------------------- OT ---------------------------------------
  Minimizer      : CG                  : conjugate gradient
  Preconditioner : FULL_ALL            : diagonalization, state selective
  Precond_solver : DEFAULT
  Line search    : 2PNT                : 2 energies, one gradient
  stepsize       :    0.15000000                  energy_gap     :    0.08000000
  eps_taylor     :   0.10000E-15                  max_taylor     :             4
  ----------------------------------- OT ---------------------------------------

  Step     Update method      Time    Convergence         Total energy    Change
  ------------------------------------------------------------------------------
     1 OT CG       0.15E+00   14.1     0.16038794       274.7699309758  3.51E-07
     2 OT LS       0.15E-02    6.3                      923.7181165809
     3 OT CG       0.15E-02    7.8     0.16036699       277.0403437733  2.27E+00
     4 OT LS       0.28E-04    6.3                      279.3978975732
     5 OT CG       0.28E-04    7.8     0.16036654       277.0840302095  4.37E-02
     6 OT LS       0.55E-06    6.3                      277.1277477368
     7 OT CG       0.55E-06    7.8     0.16036653       277.0848708561  8.41E-04
     8 OT LS       0.10E-07    6.3                      277.0857115143
     9 OT CG       0.10E-07    7.8     0.16036653       277.0848870326  1.62E-05
    10 OT LS       0.20E-09    6.3                      277.0849032090

  Leaving inner SCF loop after reaching    10 steps.


  Electronic density on regular grids:         -3.4474745962       12.5525254038
  Core density on regular grids:               16.0000000000       -0.0000000000
  Hard and soft densities (Lebedev):          -22.1108956343      -18.7594874541
  Total Rho_soft + Rho1_hard - Rho1_soft       -6.7988827764
  Total charge density (r-space):               9.2011172236
  Total Rho_soft + Rho0_soft (g-space):         0.0000021829

  Overlap energy of the core charge distribution:               0.00000000000000
  Self energy of the core charge distribution:                -31.03042709512659
  Core Hamiltonian energy:                                      4.85102349835638
  Hartree energy:                                             315.57012796338898
  Exchange-correlation energy:                                 -0.49838912181649

  GAPW| Exc from hard and soft atomic rho1:                    -4.03025150378883
  GAPW| local Eh = 1 center integrals:                         -7.77718053197954

  Total energy:                                               277.08490320903388

  outer SCF iter =    2 RMS gradient =   0.16E+00 energy =        277.0849032090

  ----------------------------------- OT ---------------------------------------
  Minimizer      : CG                  : conjugate gradient
  Preconditioner : FULL_ALL            : diagonalization, state selective
  Precond_solver : DEFAULT
  Line search    : 2PNT                : 2 energies, one gradient
  stepsize       :    0.15000000                  energy_gap     :    0.08000000
  eps_taylor     :   0.10000E-15                  max_taylor     :             4
  ----------------------------------- OT ---------------------------------------

  Step     Update method      Time    Convergence         Total energy    Change
  ------------------------------------------------------------------------------
     1 OT CG       0.15E+00   14.1     0.15953186       277.0848873439  3.11E-07
     2 OT LS       0.15E-02    6.3                      920.2164500419
     3 OT CG       0.15E-02    7.8     0.15950504       279.4184068076  2.33E+00
     4 OT LS       0.27E-04    6.3                      281.8374744943
     5 OT CG       0.27E-04    7.8     0.15950451       279.4617178704  4.33E-02
     6 OT LS       0.51E-06    6.3                      279.5050573773
     7 OT CG       0.51E-06    7.8     0.15950450       279.4625219095  8.04E-04
     8 OT LS       0.94E-08    6.3                      279.4633259584
     9 OT CG       0.94E-08    7.8     0.15950450       279.4625368360  1.49E-05
    10 OT LS       0.17E-09    6.3                      279.4625517625

  Leaving inner SCF loop after reaching    10 steps.


  Electronic density on regular grids:         -3.4384418040       12.5615581960
  Core density on regular grids:               16.0000000000       -0.0000000000
  Hard and soft densities (Lebedev):          -22.1015273654      -18.7750701809
  Total Rho_soft + Rho1_hard - Rho1_soft       -6.7648989884
  Total charge density (r-space):               9.2351010116
  Total Rho_soft + Rho0_soft (g-space):         0.0000023157

  Overlap energy of the core charge distribution:               0.00000000000000
  Self energy of the core charge distribution:                -31.03042709512659
  Core Hamiltonian energy:                                      4.79688273553417
  Hartree energy:                                             318.03449585216600
  Exchange-correlation energy:                                 -0.49664876445256

  GAPW| Exc from hard and soft atomic rho1:                    -3.99372617250721
  GAPW| local Eh = 1 center integrals:                         -7.84802479306919

  Total energy:                                               279.46255176254459

  outer SCF iter =    3 RMS gradient =   0.16E+00 energy =        279.4625517625

  ----------------------------------- OT ---------------------------------------
  Minimizer      : CG                  : conjugate gradient
  Preconditioner : FULL_ALL            : diagonalization, state selective
  Precond_solver : DEFAULT
  Line search    : 2PNT                : 2 energies, one gradient
  stepsize       :    0.15000000                  energy_gap     :    0.08000000
  eps_taylor     :   0.10000E-15                  max_taylor     :             4
  ----------------------------------- OT ---------------------------------------

  Step     Update method      Time    Convergence         Total energy    Change
  ------------------------------------------------------------------------------
     1 OT CG       0.15E+00   14.1     0.15868724       279.4625371131  2.77E-07
     2 OT LS       0.15E-02    6.3                      916.7641957571
     3 OT CG       0.15E-02    7.8     0.15865525       281.8575259102  2.39E+00
     4 OT LS       0.26E-04    6.3                      284.3364778938
     5 OT CG       0.26E-04    7.8     0.15865465       281.9004623845  4.29E-02
     6 OT LS       0.47E-06    6.3                      281.9434249431
     7 OT CG       0.47E-06    7.8     0.15865464       281.9012324055  7.70E-04
     8 OT LS       0.85E-08    6.3                      281.9020024348
     9 OT CG       0.85E-08    7.8     0.15865464       281.9012462152  1.38E-05
    10 OT LS       0.15E-09    6.3                      281.9012600248

  Leaving inner SCF loop after reaching    10 steps.


  Electronic density on regular grids:         -3.4290232121       12.5709767879
  Core density on regular grids:               16.0000000000       -0.0000000000
  Hard and soft densities (Lebedev):          -22.0914387922      -18.7899623268
  Total Rho_soft + Rho1_hard - Rho1_soft       -6.7304996775
  Total charge density (r-space):               9.2695003225
  Total Rho_soft + Rho0_soft (g-space):         0.0000024490

  Overlap energy of the core charge distribution:               0.00000000000000
  Self energy of the core charge distribution:                -31.03042709512659
  Core Hamiltonian energy:                                      4.74413496262990
  Hartree energy:                                             320.55880445032273
  Exchange-correlation energy:                                 -0.49483569700976

  GAPW| Exc from hard and soft atomic rho1:                    -3.95721232967282
  GAPW| local Eh = 1 center integrals:                         -7.91920426629958

  Total energy:                                               281.90126002484385

  outer SCF iter =    4 RMS gradient =   0.16E+00 energy =        281.9012600248

  ----------------------------------- OT ---------------------------------------
  Minimizer      : CG                  : conjugate gradient
  Preconditioner : FULL_ALL            : diagonalization, state selective
  Precond_solver : DEFAULT
  Line search    : 2PNT                : 2 energies, one gradient
  stepsize       :    0.15000000                  energy_gap     :    0.08000000
  eps_taylor     :   0.10000E-15                  max_taylor     :             4
  ----------------------------------- OT ---------------------------------------

  Step     Update method      Time    Convergence         Total energy    Change
  ------------------------------------------------------------------------------
     1 OT CG       0.15E+00   14.1     0.15785632       281.9012464628  2.48E-07
     2 OT LS       0.15E-02    6.3                      913.3606057057
     3 OT CG       0.15E-02    7.8     0.15781979       284.3557218297  2.45E+00
     4 OT LS       0.26E-04    6.3                      286.8925951111
     5 OT CG       0.26E-04    7.8     0.15781914       284.3982860153  4.26E-02
     6 OT LS       0.44E-06    6.3                      284.4408741848
     7 OT CG       0.44E-06    7.8     0.15781913       284.3990245004  7.38E-04
     8 OT LS       0.77E-08    6.3                      284.3997629927
     9 OT CG       0.77E-08    7.8     0.15781913       284.3990373132  1.28E-05
    10 OT LS       0.13E-09    6.3                      284.3990501261

  Leaving inner SCF loop after reaching    10 steps.


  Electronic density on regular grids:         -3.4192349725       12.5807650275
  Core density on regular grids:               16.0000000000       -0.0000000000
  Hard and soft densities (Lebedev):          -22.0806355797      -18.8041626910
  Total Rho_soft + Rho1_hard - Rho1_soft       -6.6957078612
  Total charge density (r-space):               9.3042921388
  Total Rho_soft + Rho0_soft (g-space):         0.0000025828

  Overlap energy of the core charge distribution:               0.00000000000000
  Self energy of the core charge distribution:                -31.03042709512659
  Core Hamiltonian energy:                                      4.69273640688461
  Hartree energy:                                             323.14110740937650
  Exchange-correlation energy:                                 -0.49295323107253

  GAPW| Exc from hard and soft atomic rho1:                    -3.92072124920248
  GAPW| local Eh = 1 center integrals:                         -7.99069211480202

  Total energy:                                               284.39905012605749

  outer SCF iter =    5 RMS gradient =   0.16E+00 energy =        284.3990501261

  ----------------------------------- OT ---------------------------------------
  Minimizer      : CG                  : conjugate gradient
  Preconditioner : FULL_ALL            : diagonalization, state selective
  Precond_solver : DEFAULT
  Line search    : 2PNT                : 2 energies, one gradient
  stepsize       :    0.15000000                  energy_gap     :    0.08000000
  eps_taylor     :   0.10000E-15                  max_taylor     :             4
  ----------------------------------- OT ---------------------------------------

  Step     Update method      Time    Convergence         Total energy    Change
  ------------------------------------------------------------------------------
     1 OT CG       0.15E+00   14.1     0.15703935       284.3990375355  2.22E-07
     2 OT LS       0.15E-02    6.3                      909.9878221332
     3 OT CG       0.15E-02    7.8     0.15699885       286.9110915454  2.51E+00
     4 OT LS       0.25E-04    6.3                      289.5039960759
     5 OT CG       0.25E-04    7.8     0.15699816       286.9532865959  4.22E-02
     6 OT LS       0.42E-06    6.3                      286.9955037535
     7 OT CG       0.42E-06    7.8     0.15699814       286.9539957832  7.09E-04
     8 OT LS       0.70E-08    6.3                      286.9547049768
     9 OT CG       0.70E-08    7.8     0.15699814       286.9540077030  1.19E-05
    10 OT LS       0.12E-09    6.3                      286.9540196227

  Leaving inner SCF loop after reaching    10 steps.


  Electronic density on regular grids:         -3.4090925485       12.5909074515
  Core density on regular grids:               16.0000000000       -0.0000000000
  Hard and soft densities (Lebedev):          -22.0691192791      -18.8176660219
  Total Rho_soft + Rho1_hard - Rho1_soft       -6.6605458057
  Total charge density (r-space):               9.3394541943
  Total Rho_soft + Rho0_soft (g-space):         0.0000027168

  Overlap energy of the core charge distribution:               0.00000000000000
  Self energy of the core charge distribution:                -31.03042709512659
  Core Hamiltonian energy:                                      4.64264403909006
  Hartree energy:                                             325.77953306279318
  Exchange-correlation energy:                                 -0.49100454280879

  GAPW| Exc from hard and soft atomic rho1:                    -3.88426402147604
  GAPW| local Eh = 1 center integrals:                         -8.06246181978187

  Total energy:                                               286.95401962268994

  outer SCF iter =    6 RMS gradient =   0.16E+00 energy =        286.9540196227

  ----------------------------------- OT ---------------------------------------
  Minimizer      : CG                  : conjugate gradient
  Preconditioner : FULL_ALL            : diagonalization, state selective
  Precond_solver : DEFAULT
  Line search    : 2PNT                : 2 energies, one gradient
  stepsize       :    0.15000000                  energy_gap     :    0.08000000
  eps_taylor     :   0.10000E-15                  max_taylor     :             4
  ----------------------------------- OT ---------------------------------------

  Step     Update method      Time    Convergence         Total energy    Change
  ------------------------------------------------------------------------------
     1 OT CG       0.15E+00   14.1     0.15623662       286.9540079033  2.00E-07
     2 OT LS       0.15E-02    6.3                      906.6305867161
     3 OT CG       0.15E-02    7.8     0.15619262       289.5218029049  2.57E+00
     4 OT LS       0.24E-04    6.3                      292.1689172930
     5 OT CG       0.24E-04    7.8     0.15619190       289.5636327206  4.18E-02
     6 OT LS       0.39E-06    6.3                      289.6054829599
     7 OT CG       0.39E-06    7.8     0.15619189       289.5643146364  6.82E-04
     8 OT LS       0.64E-08    6.3                      289.5649965575
     9 OT CG       0.64E-08    7.8     0.15619189       289.5643257532  1.11E-05
    10 OT LS       0.10E-09    6.3                      289.5643368701

  Leaving inner SCF loop after reaching    10 steps.


  Electronic density on regular grids:         -3.3986107692       12.6013892308
  Core density on regular grids:               16.0000000000       -0.0000000000
  Hard and soft densities (Lebedev):          -22.0568878159      -18.8304635545
  Total Rho_soft + Rho1_hard - Rho1_soft       -6.6250350306
  Total charge density (r-space):               9.3749649694
  Total Rho_soft + Rho0_soft (g-space):         0.0000028509

  Overlap energy of the core charge distribution:               0.00000000000000
  Self energy of the core charge distribution:                -31.03042709512659
  Core Hamiltonian energy:                                      4.59381553640128
  Hartree energy:                                             328.47227992002047
  Exchange-correlation energy:                                 -0.48899268305124

  GAPW| Exc from hard and soft atomic rho1:                    -3.84785148191070
  GAPW| local Eh = 1 center integrals:                         -8.13448732625374

  Total energy:                                               289.56433687007944

  outer SCF iter =    7 RMS gradient =   0.16E+00 energy =        289.5643368701

  ----------------------------------- OT ---------------------------------------
  Minimizer      : CG                  : conjugate gradient
  Preconditioner : FULL_ALL            : diagonalization, state selective
  Precond_solver : DEFAULT
  Line search    : 2PNT                : 2 energies, one gradient
  stepsize       :    0.15000000                  energy_gap     :    0.08000000
  eps_taylor     :   0.10000E-15                  max_taylor     :             4
  ----------------------------------- OT ---------------------------------------

  Step     Update method      Time    Convergence         Total energy    Change
  ------------------------------------------------------------------------------
     1 OT CG       0.15E+00   14.1     0.15541384       289.5643259345  1.81E-07
     2 OT LS       0.15E-02    6.3                      902.8795579309
     3 OT CG       0.15E-02    7.8     0.15536750       292.1849796069  2.62E+00
     4 OT LS       0.23E-04    6.3                      294.8833467714
     5 OT CG       0.23E-04    7.8     0.15536676       292.2264311760  4.15E-02
     6 OT LS       0.37E-06    6.3                      292.2679016318
     7 OT CG       0.37E-06    7.8     0.15536675       292.2270873818  6.56E-04
     8 OT LS       0.59E-08    6.3                      292.2277435923
     9 OT CG       0.59E-08    7.8     0.15536675       292.2270977701  1.04E-05
    10 OT LS       0.93E-10    6.3                      292.2271081585

  Leaving inner SCF loop after reaching    10 steps.


  Electronic density on regular grids:         -3.3878090255       12.6121909745
  Core density on regular grids:               16.0000000000       -0.0000000000
  Hard and soft densities (Lebedev):          -22.0439486171      -18.8425438977
  Total Rho_soft + Rho1_hard - Rho1_soft       -6.5892137450
  Total charge density (r-space):               9.4107862550
  Total Rho_soft + Rho0_soft (g-space):         0.0000029847

  Overlap energy of the core charge distribution:               0.00000000000000
  Self energy of the core charge distribution:                -31.03042709512659
  Core Hamiltonian energy:                                      4.54622314931461
  Hartree energy:                                             331.21644817177832
  Exchange-correlation energy:                                 -0.48692157259569

  GAPW| Exc from hard and soft atomic rho1:                    -3.81151339012925
  GAPW| local Eh = 1 center integrals:                         -8.20670110476964

  Total energy:                                               292.22710815847176

  outer SCF iter =    8 RMS gradient =   0.16E+00 energy =        292.2271081585

  ----------------------------------- OT ---------------------------------------
  Minimizer      : CG                  : conjugate gradient
  Preconditioner : FULL_ALL            : diagonalization, state selective
  Precond_solver : DEFAULT
  Line search    : 2PNT                : 2 energies, one gradient
  stepsize       :    0.15000000                  energy_gap     :    0.08000000
  eps_taylor     :   0.10000E-15                  max_taylor     :             4
  ----------------------------------- OT ---------------------------------------

  Step     Update method      Time    Convergence         Total energy    Change
  ------------------------------------------------------------------------------
     1 OT CG       0.15E+00   14.1     0.15440538       292.2270979346  1.64E-07
     2 OT LS       0.15E-02    6.3                      896.9369358469
     3 OT CG       0.15E-02    7.8     0.15436143       294.8895402233  2.66E+00
     4 OT LS       0.23E-04    6.3                      297.6275414725
     5 OT CG       0.23E-04    7.8     0.15436075       294.9305161421  4.10E-02
     6 OT LS       0.35E-06    6.3                      294.9715094681
     7 OT CG       0.35E-06    7.8     0.15436074       294.9311473601  6.31E-04
     8 OT LS       0.54E-08    6.3                      294.9317785822
     9 OT CG       0.54E-08    7.8     0.15436074       294.9311570839  9.72E-06
    10 OT LS       0.83E-10    6.3                      294.9311668077

  Leaving inner SCF loop after reaching    10 steps.


  Electronic density on regular grids:         -3.3767530841       12.6232469159
  Core density on regular grids:               16.0000000000       -0.0000000000
  Hard and soft densities (Lebedev):          -22.0301680678      -18.8536845324
  Total Rho_soft + Rho1_hard - Rho1_soft       -6.5532366195
  Total charge density (r-space):               9.4467633805
  Total Rho_soft + Rho0_soft (g-space):         0.0000031166

  Overlap energy of the core charge distribution:               0.00000000000000
  Self energy of the core charge distribution:                -31.03042709512659
  Core Hamiltonian energy:                                      4.49987262428212
  Hartree energy:                                             334.00070283733612
  Exchange-correlation energy:                                 -0.48480400096477

  GAPW| Exc from hard and soft atomic rho1:                    -3.77538717021507
  GAPW| local Eh = 1 center integrals:                         -8.27879038757303

  Total energy:                                               294.93116680773869

  outer SCF iter =    9 RMS gradient =   0.15E+00 energy =        294.9311668077

  ----------------------------------- OT ---------------------------------------
  Minimizer      : CG                  : conjugate gradient
  Preconditioner : FULL_ALL            : diagonalization, state selective
  Precond_solver : DEFAULT
  Line search    : 2PNT                : 2 energies, one gradient
  stepsize       :    0.15000000                  energy_gap     :    0.08000000
  eps_taylor     :   0.10000E-15                  max_taylor     :             4
  ----------------------------------- OT ---------------------------------------

  Step     Update method      Time    Convergence         Total energy    Change
  ------------------------------------------------------------------------------
     1 OT CG       0.15E+00   14.1     0.15338778       294.9311572337  1.50E-07
     2 OT LS       0.15E-02    6.3                      890.6685763705
     3 OT CG       0.15E-02    7.8     0.15334746       297.6317759806  2.70E+00
     4 OT LS       0.22E-04    6.3                      300.4057961149
     5 OT CG       0.22E-04    7.8     0.15334686       297.6722703449  4.05E-02
     6 OT LS       0.33E-06    6.3                      297.7127807802
     7 OT CG       0.33E-06    7.8     0.15334685       297.6728781396  6.08E-04
     8 OT LS       0.50E-08    6.3                      297.6734859379
     9 OT CG       0.50E-08    7.8     0.15334685       297.6728872624  9.12E-06
    10 OT LS       0.75E-10    6.3                      297.6728963852

  Leaving inner SCF loop after reaching    10 steps.


  Electronic density on regular grids:         -3.3654675029       12.6345324971
  Core density on regular grids:               16.0000000000       -0.0000000000
  Hard and soft densities (Lebedev):          -22.0154875980      -18.8638085142
  Total Rho_soft + Rho1_hard - Rho1_soft       -6.5171465867
  Total charge density (r-space):               9.4828534133
  Total Rho_soft + Rho0_soft (g-space):         0.0000032462

  Overlap energy of the core charge distribution:               0.00000000000000
  Self energy of the core charge distribution:                -31.03042709512659
  Core Hamiltonian energy:                                      4.45471812230116
  Hartree energy:                                             336.82143711462345
  Exchange-correlation energy:                                 -0.48264482819224

  GAPW| Exc from hard and soft atomic rho1:                    -3.73950072514249
  GAPW| local Eh = 1 center integrals:                         -8.35068620330870

  Total energy:                                               297.67289638515456

  outer SCF iter =   10 RMS gradient =   0.15E+00 energy =        297.6728963852

  ----------------------------------- OT ---------------------------------------
  Minimizer      : CG                  : conjugate gradient
  Preconditioner : FULL_ALL            : diagonalization, state selective
  Precond_solver : DEFAULT
  Line search    : 2PNT                : 2 energies, one gradient
  stepsize       :    0.15000000                  energy_gap     :    0.08000000
  eps_taylor     :   0.10000E-15                  max_taylor     :             4
  ----------------------------------- OT ---------------------------------------

  Step     Update method      Time    Convergence         Total energy    Change
  ------------------------------------------------------------------------------
     1 OT CG       0.15E+00   14.1     0.15178136       297.6728873993  1.37E-07
     2 OT LS       0.15E-02    6.3                      877.9428632602
     3 OT CG       0.15E-02    7.8     0.15175825       300.3782415044  2.71E+00
     4 OT LS       0.22E-04    6.3                      303.1534128240
     5 OT CG       0.22E-04    7.8     0.15175792       300.4179538063  3.97E-02
     6 OT LS       0.32E-06    6.3                      300.4576807818
     7 OT CG       0.32E-06    7.8     0.15175792       300.4185373064  5.84E-04
     8 OT LS       0.47E-08    6.3                      300.4191208096
     9 OT CG       0.47E-08    7.8     0.15175792       300.4185458800  8.57E-06
    10 OT LS       0.69E-10    6.3                      300.4185544536

  Leaving inner SCF loop after reaching    10 steps.


  Electronic density on regular grids:         -3.3541541420       12.6458458580
  Core density on regular grids:               16.0000000000       -0.0000000000
  Hard and soft densities (Lebedev):          -21.9997984654      -18.8725581848
  Total Rho_soft + Rho1_hard - Rho1_soft       -6.4813944226
  Total charge density (r-space):               9.5186055774
  Total Rho_soft + Rho0_soft (g-space):         0.0000033687

  Overlap energy of the core charge distribution:               0.00000000000000
  Self energy of the core charge distribution:                -31.03042709512659
  Core Hamiltonian energy:                                      4.41083333611132
  Hartree energy:                                             339.64436054420759
  Exchange-correlation energy:                                 -0.48048276162454

  GAPW| Exc from hard and soft atomic rho1:                    -3.70423871328259
  GAPW| local Eh = 1 center integrals:                         -8.42149085668506

  Total energy:                                               300.41855445360011

  outer SCF iter =   11 RMS gradient =   0.15E+00 energy =        300.4185544536
  outer SCF loop FAILED to converge after   11 iterations or  110 steps


 *** WARNING in qs_scf.F:542 :: SCF run NOT converged ***


 !-----------------------------------------------------------------------------!
                     Mulliken Population Analysis

 #  Atom  Element  Kind  Atomic population                           Net charge
       1     Li       1          2.840016                              0.159984
       2     Li       1          2.737872                              0.262128
       3     Li       1          3.390435                             -0.390435
       4     Li       1          2.139059                              0.860941
       5     H        2          1.629243                             -0.629243
       6     H        2          0.958304                              0.041696
       7     H        2          1.092384                             -0.092384
       8     H        2          1.212686                             -0.212686
 # Total charge                             16.000000                  0.000000

 !-----------------------------------------------------------------------------!

 !-----------------------------------------------------------------------------!
                           Hirshfeld Charges

  #Atom  Element  Kind  Ref Charge     Population                    Net charge
      1       Li     1       3.000          1.587                         1.413
      2       Li     1       3.000          1.560                         1.440
      3       Li     1       3.000          1.558                         1.442
      4       Li     1       3.000          1.534                         1.466
      5       H      2       1.000          0.077                         0.923
      6       H      2       1.000          0.055                         0.945
      7       H      2       1.000          0.053                         0.947
      8       H      2       1.000          0.057                         0.943

  Total Charge                                                            9.519
 !-----------------------------------------------------------------------------!
                                            Tot. Ener.            S Cond. Numb.
      BASIS_MOLOPT_QUANTITIES  0.30041855445360011E+03  0.28717861797359401E+05

 ENERGY| Total FORCE_EVAL ( QS ) energy (a.u.):              300.418554453600109


 -------------------------------------------------------------------------------
 -                                                                             -
 -                                DBCSR STATISTICS                             -
 -                                                                             -
 -------------------------------------------------------------------------------
 COUNTER                                    TOTAL       BLAS       SMM       ACC
 flops     8 x     8 x     8               420864     100.0%      0.0%      0.0%
 flops     8 x     8 x   300             10982400     100.0%      0.0%      0.0%
 flops   300 x     8 x     8             15206400     100.0%      0.0%      0.0%
 flops    32 x    32 x     8             18186240     100.0%      0.0%      0.0%
 flops    43 x    32 x     8             19550208     100.0%      0.0%      0.0%
 flops    32 x    43 x     8             19550208     100.0%      0.0%      0.0%
 flops    43 x    43 x     8             32838240     100.0%      0.0%      0.0%
 flops    32 x     8 x    32             61079552     100.0%      0.0%      0.0%
 flops    43 x     8 x    32             82075648     100.0%      0.0%      0.0%
 flops    32 x     8 x    43             82075648     100.0%      0.0%      0.0%
 flops    43 x     8 x    43            110289152     100.0%      0.0%      0.0%
 flops   300 x     8 x   300            190080000     100.0%      0.0%      0.0%
 flops inhomo. stacks                           0       0.0%      0.0%      0.0%
 flops total                       642.334560E+06     100.0%      0.0%      0.0%
 flops max/rank                    642.334560E+06     100.0%      0.0%      0.0%
 matmuls inhomo. stacks                         0       0.0%      0.0%      0.0%
 matmuls total                              20133     100.0%      0.0%      0.0%
 number of processed stacks                  2601     100.0%      0.0%      0.0%
 average stack size                                     7.7       0.0       0.0
 marketing flops                   712.472064E+06
 -------------------------------------------------------------------------------
 # multiplications                           1580
 max memory usage/rank             323.330048E+06
 # max total images/rank                        1
 # max 3D layers                                1
 # MPI messages exchanged                       0
 MPI messages size (bytes):
  total size                         0.000000E+00
  min size                           0.000000E+00
  max size                           0.000000E+00
  average size                       0.000000E+00
 MPI breakdown and total messages size (bytes):
             size <=      128                   0                        0
       128 < size <=     8192                   0                        0
      8192 < size <=    32768                   0                        0
     32768 < size <=   131072                   0                        0
    131072 < size <=  4194304                   0                        0
   4194304 < size <= 16777216                   0                        0
  16777216 < size                               0                        0
 -------------------------------------------------------------------------------
 -                                                                             -
 -                      DBCSR MESSAGE PASSING PERFORMANCE                      -
 -                                                                             -
 -------------------------------------------------------------------------------

 ROUTINE             CALLS      AVE VOLUME [Bytes]
 MP_Group              143
 MP_Bcast               13                     12.
 MP_Allreduce         7907                      8.
 MP_Alltoall          6285                  28624.
 MP_Wait             37920
 MP_ISend             6276                    236.
 MP_IRecv             6276                    236.
 MP_Memory           54440
 -------------------------------------------------------------------------------


 MEMORY| Estimated peak process memory [MiB]                                 309

 -------------------------------------------------------------------------------
 ----                             MULTIGRID INFO                            ----
 -------------------------------------------------------------------------------
 count for grid        1:          28421          cutoff [a.u.]          150.00
 count for grid        2:         111360          cutoff [a.u.]           50.00
 count for grid        3:          39412          cutoff [a.u.]           16.67
 count for grid        4:              8          cutoff [a.u.]            5.56
 total gridlevel count  :         179201

 -------------------------------------------------------------------------------
 -                                                                             -
 -                         MESSAGE PASSING PERFORMANCE                         -
 -                                                                             -
 -------------------------------------------------------------------------------

 ROUTINE             CALLS      AVE VOLUME [Bytes]
 MP_Group                4
 MP_Bcast             2388                  10634.
 MP_Allreduce         3576                   6886.
 MP_Sync                 4
 -------------------------------------------------------------------------------


 -------------------------------------------------------------------------------
 -                                                                             -
 -                           R E F E R E N C E S                               -
 -                                                                             -
 -------------------------------------------------------------------------------
 
 CP2K version 7.0 (Development Version), the CP2K developers group (2018).
 CP2K is freely available from https://www.cp2k.org/ .

 Schuett, Ole; Messmer, Peter; Hutter, Juerg; VandeVondele, Joost. 
 Electronic Structure Calculations on Graphics Processing Units, John Wiley & Sons, Ltd, 173-190 (2016). 
 GPU-Accelerated Sparse Matrix-Matrix Multiplication for Linear Scaling Density Functional Theory.
 https://dx.doi.org/10.1002/9781118670712.ch8


 Borstnik, U; VandeVondele, J; Weber, V; Hutter, J. 
 PARALLEL COMPUTING, 40 (5-6), 47-58 (2014). 
 Sparse matrix multiplication: The distributed block-compressed sparse
 row library.
 https://dx.doi.org/10.1016/j.parco.2014.03.012


 Hutter, J; Iannuzzi, M; Schiffmann, F; VandeVondele, J. 
 WILEY INTERDISCIPLINARY REVIEWS-COMPUTATIONAL MOLECULAR SCIENCE, 4 (1), 15-25 (2014). 
 CP2K: atomistic simulations of condensed matter systems.
 https://dx.doi.org/10.1002/wcms.1159


 Frigo, M; Johnson, SG. 
 PROCEEDINGS OF THE IEEE, 93 (2), 216-231 (2005). 
 The design and implementation of FFTW3.
 https://dx.doi.org/10.1109/JPROC.2004.840301


 VandeVondele, J; Hutter, J. 
 JOURNAL OF CHEMICAL PHYSICS, 118 (10), 4365-4369 (2003). 
 An efficient orbital transformation method for electronic structure
 calculations.
 https://dx.doi.org/10.1063/1.1543154


 Lippert, G; Hutter, J; Parrinello, M. 
 THEORETICAL CHEMISTRY ACCOUNTS, 103 (2), 124-140 (1999). 
 The Gaussian and augmented-plane-wave density functional method for ab
 initio molecular dynamics simulations.
 https://dx.doi.org/10.1007/s002140050523


 Krack, M; Parrinello, M. 
 PHYSICAL CHEMISTRY CHEMICAL PHYSICS, 2 (10), 2105-2112 (2000). 
 All-electron ab-initio molecular dynamics.
 https://dx.doi.org/10.1039/b001167n


 BECKE, AD. PHYSICAL REVIEW A, 38 (6), 3098-3100 (1988). 
 DENSITY-FUNCTIONAL EXCHANGE-ENERGY APPROXIMATION WITH CORRECT
 ASYMPTOTIC-BEHAVIOR.
 https://dx.doi.org/10.1103/PhysRevA.38.3098


 -------------------------------------------------------------------------------
 -                                                                             -
 -                                T I M I N G                                  -
 -                                                                             -
 -------------------------------------------------------------------------------
 SUBROUTINE                       CALLS  ASD         SELF TIME        TOTAL TIME
                                MAXIMUM       AVERAGE  MAXIMUM  AVERAGE  MAXIMUM
 CP2K                                 1  1.0    0.007    0.007  784.162  784.162
 qs_energies                          1  2.0    0.000    0.000  784.000  784.000
 scf_env_do_scf                       1  3.0    0.001    0.001  773.098  773.098
 scf_env_do_scf_inner_loop          110  4.0    0.010    0.010  721.196  721.196
 qs_ks_update_qs_env                121  5.0    0.001    0.001  430.213  430.213
 rebuild_ks_matrix                  110  6.0    0.000    0.000  430.194  430.194
 qs_ks_build_kohn_sham_matrix       110  7.0    0.016    0.016  430.194  430.194
 qs_rho_update_rho                  111  5.0    0.001    0.001  345.182  345.182
 update_ks_atom                     110  8.0  334.414  334.414  334.415  334.415
 calculate_rho_atom_coeff           111  6.0  182.702  182.702  182.703  182.703
 calculate_rho_elec                 111  6.0  161.290  161.290  162.478  162.478
 sum_up_and_integrate                55  8.0    0.007    0.007   74.894   74.894
 integrate_v_rspace                  55  9.0   74.774   74.774   74.887   74.887
 init_scf_loop                       11  4.0    0.000    0.000   51.901   51.901
 -------------------------------------------------------------------------------

 The number of warnings for this run is : 1
 
 -------------------------------------------------------------------------------
  **** **** ******  **  PROGRAM ENDED AT                 2019-04-16 16:42:48.674
 ***** ** ***  *** **   PROGRAM RAN ON                                  r4-node4
 **    ****   ******    PROGRAM RAN BY                                     xiexg
 ***** **    ** ** **   PROGRAM PROCESS ID                                 89154
  **** **  *******  **  PROGRAM STOPPED IN /home/xiexg/cp2k/tests/QS/benchmark_H
                                           FX/LiH_2
